LAMMPS Description

123 atoms
0 bonds
0 angles
0 dihedrals
0 impropers

1 atom types
0 bond types
0 angle types
0 dihedral types
0 improper types

-2.10 23.26 xlo xhi
-2.39 22.97 ylo yhi
-1.92 23.45 zlo zhi

Masses

1 39.948 # Argon Atom Ar 211

Pair Coeffs

1 0.2340 3.4010

Atoms

1 1 1 0.0000 9.002 16.363 -0.645
2 2 1 0.0000 22.406 4.994 4.521
3 3 1 0.0000 15.385 -2.526 2.391
4 4 1 0.0000 2.265 -0.166 15.038
5 5 1 0.0000 0.447 16.066 20.314
6 6 1 0.0000 12.207 2.265 9.338
7 7 1 0.0000 7.116 10.993 17.153
8 8 1 0.0000 1.751 8.933 -0.531
9 9 1 0.0000 18.395 20.809 -3.008
10 10 1 0.0000 21.634 12.202 2.171
11 11 1 0.0000 19.075 11.633 8.144
12 12 1 0.0000 13.895 11.495 18.458
13 13 1 0.0000 7.978 15.824 8.337
14 14 1 0.0000 16.584 -0.179 1.738
15 15 1 0.0000 11.959 8.344 -0.731
16 16 1 0.0000 23.064 4.409 13.171
17 17 1 0.0000 -1.449 21.288 21.030
18 18 1 0.0000 7.398 20.915 13.441
19 19 1 0.0000 19.428 9.900 17.844
20 20 1 0.0000 4.465 19.519 7.629
21 21 1 0.0000 1.688 21.694 1.867
22 22 1 0.0000 4.188 0.782 21.412
23 23 1 0.0000 14.119 22.235 17.119
24 24 1 0.0000 17.921 22.602 6.609
25 25 1 0.0000 13.200 16.886 3.416
26 26 1 0.0000 8.902 -0.398 -1.864
27 27 1 0.0000 5.410 5.643 4.586
28 28 1 0.0000 1.068 16.176 8.965
29 29 1 0.0000 21.673 20.198 12.209
30 30 1 0.0000 -0.836 2.767 19.359
31 31 1 0.0000 17.671 7.689 9.152
32 32 1 0.0000 2.151 12.204 11.744
33 33 1 0.0000 3.341 17.389 16.210
34 34 1 0.0000 17.048 13.685 12.267
35 35 1 0.0000 8.676 4.785 13.767
36 36 1 0.0000 3.841 15.151 23.250
37 37 1 0.0000 17.206 3.036 18.723
38 38 1 0.0000 21.805 21.670 21.993
39 39 1 0.0000 11.020 6.779 5.301
40 40 1 0.0000 5.074 -3.206 19.583
41 41 1 0.0000 -2.403 0.250 5.896
42 42 1 0.0000 12.437 18.444 12.027
43 43 1 0.0000 9.181 -2.327 3.322
44 44 1 0.0000 7.426 1.958 -1.232
45 45 1 0.0000 20.531 3.839 22.475
46 46 1 0.0000 1.878 4.374 16.500
47 47 1 0.0000 8.194 1.592 19.216
48 48 1 0.0000 19.353 13.235 -0.903
49 49 1 0.0000 15.724 16.030 21.139
50 50 1 0.0000 6.065 8.310 9.141
51 51 1 0.0000 1.751 22.180 -0.863
52 52 1 0.0000 13.449 -1.119 0.222
53 53 1 0.0000 -0.785 -0.309 8.249
54 54 1 0.0000 1.315 2.614 5.250
55 55 1 0.0000 20.697 18.678 21.112
56 56 1 0.0000 6.799 21.157 1.816
57 57 1 0.0000 18.767 19.424 -1.428
58 58 1 0.0000 16.933 15.759 4.405
59 59 1 0.0000 7.719 19.450 24.221
60 60 1 0.0000 8.652 18.863 19.616
61 61 1 0.0000 -2.144 14.777 -0.945
62 62 1 0.0000 13.724 3.693 12.576
63 63 1 0.0000 12.658 7.183 11.258
64 64 1 0.0000 21.863 14.516 5.709
65 65 1 0.0000 7.673 20.028 7.703
66 66 1 0.0000 14.578 18.194 23.230
67 67 1 0.0000 12.047 2.664 19.881
68 68 1 0.0000 9.095 13.953 9.574
69 69 1 0.0000 19.736 20.630 1.698
70 70 1 0.0000 9.202 20.426 18.192
71 71 1 0.0000 -2.219 5.602 -2.455
72 72 1 0.0000 -0.735 18.237 6.599
73 73 1 0.0000 18.326 2.213 14.430
74 74 1 0.0000 19.138 0.385 -2.278
75 75 1 0.0000 -2.406 7.201 16.609
76 76 1 0.0000 11.770 -0.480 3.138
77 77 1 0.0000 -3.397 7.260 -0.768
78 78 1 0.0000 20.408 6.341 21.939
79 79 1 0.0000 9.104 -1.139 7.361
80 80 1 0.0000 10.145 6.811 7.170
81 81 1 0.0000 11.964 20.005 6.593
82 82 1 0.0000 17.728 20.983 14.822
83 83 1 0.0000 18.591 -1.476 11.729
84 84 1 0.0000 1.785 11.204 0.317
85 85 1 0.0000 20.992 15.199 16.161
86 86 1 0.0000 4.091 10.256 2.023
87 87 1 0.0000 13.403 8.634 14.066
88 88 1 0.0000 23.023 7.965 12.983
89 89 1 0.0000 9.864 9.558 21.115
90 90 1 0.0000 13.736 9.332 3.116
91 91 1 0.0000 18.277 1.770 5.553
92 92 1 0.0000 -0.530 2.763 7.136
93 93 1 0.0000 1.407 7.513 13.383
94 94 1 0.0000 2.012 17.902 18.806
95 95 1 0.0000 13.159 7.927 -2.402
96 96 1 0.0000 14.028 1.961 5.814
97 97 1 0.0000 12.935 18.990 5.114
98 98 1 0.0000 7.406 20.256 21.068
99 99 1 0.0000 19.913 21.354 8.826
100 100 1 0.0000 20.771 20.163 6.796
101 101 1 0.0000 3.781 22.711 12.200
102 102 1 0.0000 9.671 3.832 12.004
103 103 1 0.0000 21.916 19.583 18.654
104 104 1 0.0000 19.220 -1.900 9.409
105 105 1 0.0000 10.628 7.067 22.253
106 106 1 0.0000 16.990 5.135 18.104
107 107 1 0.0000 13.936 9.524 7.526
108 108 1 0.0000 8.898 4.377 21.013
109 109 1 0.0000 1.520 6.289 21.979
110 110 1 0.0000 7.078 12.061 13.491
111 111 1 0.0000 -0.166 15.959 -1.165
112 112 1 0.0000 20.591 -1.297 21.765
113 113 1 0.0000 -1.996 9.478 7.066
114 114 1 0.0000 16.406 10.777 21.538
115 115 1 0.0000 15.965 7.812 1.377
116 116 1 0.0000 -1.915 8.842 18.499
117 117 1 0.0000 21.949 8.122 20.163
118 118 1 0.0000 -2.034 11.107 16.085
119 119 1 0.0000 8.860 21.738 20.859
120 120 1 0.0000 7.172 8.275 5.306
121 121 1 0.0000 -0.174 12.755 18.030
122 122 1 0.0000 17.784 -2.003 21.776
123 123 1 0.0000 20.533 1.303 11.063

