LAMMPS (7 Feb 2024 - Development - patch_7Feb2024-18-gc6a8f1fe58)
units real
atom_style full
bond_style harmonic
angle_style harmonic
dihedral_style opls
improper_style cvff
pair_style lj/cut 11.0
pair_modify mix geometric
special_bonds lj/coul 0 0 0.5
read_data polymer_builder.data
Reading data file ...
  orthogonal box = (0 0 0) to (44.7207 44.7207 44.7207)
  1 by 1 by 1 MPI processor grid
  reading atoms ...
  3000 atoms
  scanning bonds ...
  1 = max bonds/atom
  scanning angles ...
  1 = max angles/atom
  scanning dihedrals ...
  1 = max dihedrals/atom
  reading bonds ...
  2500 bonds
  reading angles ...
  2000 angles
  reading dihedrals ...
  1500 dihedrals
Finding 1-2 1-3 1-4 neighbors ...
  special bond factors lj:    0        0        0.5     
  special bond factors coul:  0        0        0.5     
     2 = max # of 1-2 neighbors
     2 = max # of 1-3 neighbors
     3 = max # of 1-4 neighbors
     5 = max # of special neighbors
  special bonds CPU = 0.002 seconds
  read_data CPU = 0.051 seconds

timestep 1
thermo_modify flush yes
thermo 1000
dump 1 all custom 1000 dump.custom.gz id xu yu zu
dump_modify 1 sort id
min_style fire
minimize 1.0e-6 1.0e-8 1000000 10000000
Generated 1 of 1 mixed pair_coeff terms from geometric mixing rule
Neighbor list info ...
  update: every = 1 steps, delay = 0 steps, check = yes
  max neighbors/atom: 2000, page size: 100000
  master list distance cutoff = 13
  ghost atom cutoff = 13
  binsize = 6.5, bins = 7 7 7
  1 neighbor lists, perpetual/occasional/extra = 1 0 0
  (1) pair lj/cut, perpetual
      attributes: half, newton on
      pair build: half/bin/newton
      stencil: half/bin/3d
      bin: standard
  Parameters for fire:
    dmax  delaystep dtgrow dtshrink alpha0 alphashrink tmax tmin   integrator   halfstepback   abcfire  
     0.1     20      1.1     0.5     0.25     0.99      10  0.02 eulerimplicit      yes          no     
Per MPI rank memory allocation (min/avg/max) = 9.044 | 9.044 | 9.044 Mbytes
   Step          Temp          E_pair         E_mol          TotEng         Press     
         0   0              951591.43      3135.108       954726.54      2988313.7    
      1000   0.10138438    -3306.2155      1032.3684     -2272.9408      1862.3769    
      2000   0.33174263    -3500.6115      1021.026      -2476.6199      710.07054    
      3000   0.082638958   -3580.5423      1021.7522     -2558.0514      238.59925    
      3527   0.12160813    -3605.7799      1021.7241     -2582.9688      87.391244    
Loop time of 33.4958 on 1 procs for 3527 steps with 3000 atoms

97.3% CPU use with 1 MPI tasks x no OpenMP threads

Minimization stats:
  Stopping criterion = energy tolerance
  Energy initial, next-to-last, final = 
      954726.540359446  -2584.05708124155  -2584.05585997972
  Force two-norm initial, final = 330964.84 28.451225
  Force max component initial, final = 31991.934 8.2945001
  Final line search alpha, max atom move = 0 0
  Iterations, force evaluations = 3527 3720

MPI task timing breakdown:
Section |  min time  |  avg time  |  max time  |%varavg| %total
---------------------------------------------------------------
Pair    | 30.972     | 30.972     | 30.972     |   0.0 | 92.46
Bond    | 1.7134     | 1.7134     | 1.7134     |   0.0 |  5.12
Neigh   | 0.36916    | 0.36916    | 0.36916    |   0.0 |  1.10
Comm    | 0.17069    | 0.17069    | 0.17069    |   0.0 |  0.51
Output  | 0.0068599  | 0.0068599  | 0.0068599  |   0.0 |  0.02
Modify  | 0          | 0          | 0          |   0.0 |  0.00
Other   |            | 0.264      |            |       |  0.79

Nlocal:           3000 ave        3000 max        3000 min
Histogram: 1 0 0 0 0 0 0 0 0 0
Nghost:           8842 ave        8842 max        8842 min
Histogram: 1 0 0 0 0 0 0 0 0 0
Neighs:         457245 ave      457245 max      457245 min
Histogram: 1 0 0 0 0 0 0 0 0 0

Total # of neighbors = 457245
Ave neighs/atom = 152.415
Ave special neighs/atom = 4
Neighbor list builds = 15
Dangerous builds = 0

velocity all create 10 836689
fix 1a all temp/berendsen 10 10 100
fix 1b all nve
run 1000
Generated 1 of 1 mixed pair_coeff terms from geometric mixing rule
Per MPI rank memory allocation (min/avg/max) = 10.59 | 10.59 | 10.59 Mbytes
   Step          Temp          E_pair         E_mol          TotEng         Press     
      3527   10            -3605.7799      1021.7241     -2494.6614      132.52527    
      4000   10.410782     -3614.0618      1071.6063     -2449.3888      89.593829    
      4527   10.661562     -3657.8526      1060.9527     -2501.5914     -240.04583    
Loop time of 5.32542 on 1 procs for 1000 steps with 3000 atoms

Performance: 16.224 ns/day, 1.479 hours/ns, 187.779 timesteps/s, 563.336 katom-step/s
98.6% CPU use with 1 MPI tasks x no OpenMP threads

MPI task timing breakdown:
Section |  min time  |  avg time  |  max time  |%varavg| %total
---------------------------------------------------------------
Pair    | 4.8386     | 4.8386     | 4.8386     |   0.0 | 90.86
Bond    | 0.35103    | 0.35103    | 0.35103    |   0.0 |  6.59
Neigh   | 0.043936   | 0.043936   | 0.043936   |   0.0 |  0.83
Comm    | 0.039104   | 0.039104   | 0.039104   |   0.0 |  0.73
Output  | 0.002113   | 0.002113   | 0.002113   |   0.0 |  0.04
Modify  | 0.0356     | 0.0356     | 0.0356     |   0.0 |  0.67
Other   |            | 0.01503    |            |       |  0.28

Nlocal:           3000 ave        3000 max        3000 min
Histogram: 1 0 0 0 0 0 0 0 0 0
Nghost:           8854 ave        8854 max        8854 min
Histogram: 1 0 0 0 0 0 0 0 0 0
Neighs:         457175 ave      457175 max      457175 min
Histogram: 1 0 0 0 0 0 0 0 0 0

Total # of neighbors = 457175
Ave neighs/atom = 152.39167
Ave special neighs/atom = 4
Neighbor list builds = 3
Dangerous builds = 0
unfix 1b
unfix 1a

fix 2a all temp/berendsen 10 300 100
fix 2b all nve
run 10000
Generated 1 of 1 mixed pair_coeff terms from geometric mixing rule
Per MPI rank memory allocation (min/avg/max) = 10.59 | 10.59 | 10.59 Mbytes
   Step          Temp          E_pair         E_mol          TotEng         Press     
      4527   10.661562     -3657.8526      1060.9527     -2501.5914     -240.04583    
      5000   19.753322     -3631.1169      1061.0825     -2393.4506     -102.20478    
      6000   47.790689     -3498.2618      1129.1727     -1941.8667      715.85984    
      7000   75.936335     -3398.8897      1222.305      -1497.7557      1304.2539    
      8000   106.79029     -3323.724       1287.3208     -1081.7568      1812.2097    
      9000   136.99189     -3299.9962      1379.2825     -696.08168      2314.2127    
     10000   164.53494     -3211.7708      1463.5821     -277.33691      3181.9545    
     11000   196.28251     -3263.5198      1558.4334      49.571164      2961.8497    
     12000   225.54642     -3286.6186      1656.2738      385.91587      3487.6425    
     13000   247.73574     -3257.8955      1789.9442      746.66989      3869.3431    
     14000   281.73933     -3275.9328      1847.4945      1090.1561      4775.6687    
     14527   295.95519     -3333.8055      1988.0984      1299.9694      4795.7515    
Loop time of 56.5345 on 1 procs for 10000 steps with 3000 atoms

Performance: 15.283 ns/day, 1.570 hours/ns, 176.883 timesteps/s, 530.650 katom-step/s
98.0% CPU use with 1 MPI tasks x no OpenMP threads

MPI task timing breakdown:
Section |  min time  |  avg time  |  max time  |%varavg| %total
---------------------------------------------------------------
Pair    | 50.206     | 50.206     | 50.206     |   0.0 | 88.81
Bond    | 3.5486     | 3.5486     | 3.5486     |   0.0 |  6.28
Neigh   | 1.813      | 1.813      | 1.813      |   0.0 |  3.21
Comm    | 0.42034    | 0.42034    | 0.42034    |   0.0 |  0.74
Output  | 0.022798   | 0.022798   | 0.022798   |   0.0 |  0.04
Modify  | 0.36715    | 0.36715    | 0.36715    |   0.0 |  0.65
Other   |            | 0.1564     |            |       |  0.28

Nlocal:           3000 ave        3000 max        3000 min
Histogram: 1 0 0 0 0 0 0 0 0 0
Nghost:           8862 ave        8862 max        8862 min
Histogram: 1 0 0 0 0 0 0 0 0 0
Neighs:         456738 ave      456738 max      456738 min
Histogram: 1 0 0 0 0 0 0 0 0 0

Total # of neighbors = 456738
Ave neighs/atom = 152.246
Ave special neighs/atom = 4
Neighbor list builds = 116
Dangerous builds = 0
unfix 2b
unfix 2a

dump_modify 1 every 10000

variable vol equal vol
variable amp equal 0.01*v_vol^(1/3)
variable immed_press python getPress
python getPress input 1 press_vol.data return v_immed_press format sf here "from nemd.pyfunc import getPress"

variable immed_modulus python getModulus
python getModulus input 2 press_vol.data 100 return v_immed_modulus format sif here "from nemd.pyfunc import getModulus"

variable factor python getBdryFactor
python getBdryFactor input 2 1 press_vol.data return v_factor format fsf here "from nemd.pyfunc import getBdryFactor"

variable defm_id loop 0 99 pad
label defm_start
print "defm_id = ${defm_id}"
defm_id = 00
shell mkdir defm_${defm_id}
shell mkdir defm_00
shell cd defm_${defm_id}
shell cd defm_00

fix 15a all ave/time 1 25 25 c_thermo_press v_vol file press_vol.data
fix 15b all deform 100 x wiggle ${amp} 2500 y wiggle ${amp} 2500 z wiggle ${amp} 2500
fix 15b all deform 100 x wiggle 0.447207 2500 y wiggle ${amp} 2500 z wiggle ${amp} 2500
fix 15b all deform 100 x wiggle 0.447207 2500 y wiggle 0.447207 2500 z wiggle ${amp} 2500
fix 15b all deform 100 x wiggle 0.447207 2500 y wiggle 0.447207 2500 z wiggle 0.447207 2500
fix 15c all temp/berendsen 300 300 100
fix 15d all nve
run 7500
Generated 1 of 1 mixed pair_coeff terms from geometric mixing rule
Per MPI rank memory allocation (min/avg/max) = 10.59 | 10.59 | 10.59 Mbytes
   Step          Temp          E_pair         E_mol          TotEng         Press          Volume    
     14527   295.95519     -3333.8055      1988.0984      1299.9694      4795.7515      89438.762    
     15000   295.24728     -3351.2192      2006.7376      1294.8665      4042.3304      91951.681    
     16000   308.57348     -3360.8939      1884.8235      1282.4066      4755.1039      88020.025    
     17000   302.30187     -3524.5006      1882.3714      1060.2829      5164.2982      89256.95     
     18000   301.04914     -3506.553       1880.2846      1064.9451      4764.513       91170.503    
     19000   296.94804     -3580.8948      1846.5656      920.22272      5260.7239      86861.729    
     20000   297.74684     -3684.7731      1803.8695      780.78919      4829.6141      91951.681    
     21000   310.98137     -3673.0642      1757.1039      864.04197      4211.0817      88020.025    
     22000   299.54812     -3714.8749      1754.9138      717.83421      5241.9314      89256.95     
     22027   297.65033     -3731.2509      1769.4857      699.0648       6086.8133      89256.95     
Loop time of 49.8682 on 1 procs for 7500 steps with 3000 atoms

Performance: 12.994 ns/day, 1.847 hours/ns, 150.397 timesteps/s, 451.190 katom-step/s
90.2% CPU use with 1 MPI tasks x no OpenMP threads

MPI task timing breakdown:
Section |  min time  |  avg time  |  max time  |%varavg| %total
---------------------------------------------------------------
Pair    | 43.263     | 43.263     | 43.263     |   0.0 | 86.75
Bond    | 3.4921     | 3.4921     | 3.4921     |   0.0 |  7.00
Neigh   | 2.2045     | 2.2045     | 2.2045     |   0.0 |  4.42
Comm    | 0.35015    | 0.35015    | 0.35015    |   0.0 |  0.70
Output  | 0.0023206  | 0.0023206  | 0.0023206  |   0.0 |  0.00
Modify  | 0.43193    | 0.43193    | 0.43193    |   0.0 |  0.87
Other   |            | 0.1242     |            |       |  0.25

Nlocal:           3000 ave        3000 max        3000 min
Histogram: 1 0 0 0 0 0 0 0 0 0
Nghost:           8830 ave        8830 max        8830 min
Histogram: 1 0 0 0 0 0 0 0 0 0
Neighs:         457360 ave      457360 max      457360 min
Histogram: 1 0 0 0 0 0 0 0 0 0

Total # of neighbors = 457360
Ave neighs/atom = 152.45333
Ave special neighs/atom = 4
Neighbor list builds = 127
Dangerous builds = 0
unfix 15d
unfix 15c
unfix 15b
unfix 15a

print "immed_press = ${immed_press}"
immed_press = 4778.28548494983
print "immed_modulus = ${immed_modulus}"
immed_modulus = 53140.424975209
print "factor = ${factor}"
factor = 1.01231428059862
if "${defm_id} == 99 || ${factor} == 1" then "jump SELF defm_break"

fix 21a all deform 100 x scale ${factor} y scale ${factor} z scale ${factor} remap v
fix 21a all deform 100 x scale 1.01231428059862 y scale ${factor} z scale ${factor} remap v
fix 21a all deform 100 x scale 1.01231428059862 y scale 1.01231428059862 z scale ${factor} remap v
fix 21a all deform 100 x scale 1.01231428059862 y scale 1.01231428059862 z scale 1.01231428059862 remap v
fix 21b all temp/berendsen 300 300 100
fix 21c all nve
run 1250
Generated 1 of 1 mixed pair_coeff terms from geometric mixing rule
Per MPI rank memory allocation (min/avg/max) = 10.59 | 10.59 | 10.59 Mbytes
   Step          Temp          E_pair         E_mol          TotEng         Press          Volume    
     22027   297.60245     -3731.2509      1769.4857      698.63681      6086.5941      89256.95     
     23000   300.81546     -3785.47        1826.8972      730.55178      2569.0839      91848.332    
     23277   296.53287     -3789.2881      1860.8485      722.40092      1827.2709      92387.129    
Loop time of 6.90741 on 1 procs for 1250 steps with 3000 atoms

Performance: 15.635 ns/day, 1.535 hours/ns, 180.965 timesteps/s, 542.895 katom-step/s
100.4% CPU use with 1 MPI tasks x no OpenMP threads

MPI task timing breakdown:
Section |  min time  |  avg time  |  max time  |%varavg| %total
---------------------------------------------------------------
Pair    | 6.0787     | 6.0787     | 6.0787     |   0.0 | 88.00
Bond    | 0.4131     | 0.4131     | 0.4131     |   0.0 |  5.98
Neigh   | 0.30356    | 0.30356    | 0.30356    |   0.0 |  4.39
Comm    | 0.049942   | 0.049942   | 0.049942   |   0.0 |  0.72
Output  | 0.00010625 | 0.00010625 | 0.00010625 |   0.0 |  0.00
Modify  | 0.043473   | 0.043473   | 0.043473   |   0.0 |  0.63
Other   |            | 0.0185     |            |       |  0.27

Nlocal:           3000 ave        3000 max        3000 min
Histogram: 1 0 0 0 0 0 0 0 0 0
Nghost:           8762 ave        8762 max        8762 min
Histogram: 1 0 0 0 0 0 0 0 0 0
Neighs:         441664 ave      441664 max      441664 min
Histogram: 1 0 0 0 0 0 0 0 0 0

Total # of neighbors = 441664
Ave neighs/atom = 147.22133
Ave special neighs/atom = 4
Neighbor list builds = 20
Dangerous builds = 0
unfix 21c
unfix 21b
unfix 21a

fix 22a all temp/berendsen 300 300 100
fix 22b all nve
run 1250
Generated 1 of 1 mixed pair_coeff terms from geometric mixing rule
Per MPI rank memory allocation (min/avg/max) = 10.59 | 10.59 | 10.59 Mbytes
   Step          Temp          E_pair         E_mol          TotEng         Press     
     23277   296.53287     -3789.2881      1860.8485      722.40092      1827.2709    
     24000   299.13589     -3802.3138      1886.8671      758.66339      2643.4692    
     24527   303.19822     -3770.2074      1798.4859      738.70359      4420.2362    
Loop time of 6.74318 on 1 procs for 1250 steps with 3000 atoms

Performance: 16.016 ns/day, 1.498 hours/ns, 185.373 timesteps/s, 556.118 katom-step/s
99.0% CPU use with 1 MPI tasks x no OpenMP threads

MPI task timing breakdown:
Section |  min time  |  avg time  |  max time  |%varavg| %total
---------------------------------------------------------------
Pair    | 5.9477     | 5.9477     | 5.9477     |   0.0 | 88.20
Bond    | 0.41159    | 0.41159    | 0.41159    |   0.0 |  6.10
Neigh   | 0.27353    | 0.27353    | 0.27353    |   0.0 |  4.06
Comm    | 0.04959    | 0.04959    | 0.04959    |   0.0 |  0.74
Output  | 0.00010504 | 0.00010504 | 0.00010504 |   0.0 |  0.00
Modify  | 0.042656   | 0.042656   | 0.042656   |   0.0 |  0.63
Other   |            | 0.01796    |            |       |  0.27

Nlocal:           3000 ave        3000 max        3000 min
Histogram: 1 0 0 0 0 0 0 0 0 0
Nghost:           8652 ave        8652 max        8652 min
Histogram: 1 0 0 0 0 0 0 0 0 0
Neighs:         441729 ave      441729 max      441729 min
Histogram: 1 0 0 0 0 0 0 0 0 0

Total # of neighbors = 441729
Ave neighs/atom = 147.243
Ave special neighs/atom = 4
Neighbor list builds = 19
Dangerous builds = 0
unfix 22b
unfix 22a

shell cd ..
next defm_id
jump SELF defm_start
print "defm_id = ${defm_id}"
defm_id = 01
shell mkdir defm_${defm_id}
shell mkdir defm_01
shell cd defm_${defm_id}
shell cd defm_01

fix 15a all ave/time 1 25 25 c_thermo_press v_vol file press_vol.data
fix 15b all deform 100 x wiggle ${amp} 2500 y wiggle ${amp} 2500 z wiggle ${amp} 2500
fix 15b all deform 100 x wiggle 0.452068060512316 2500 y wiggle ${amp} 2500 z wiggle ${amp} 2500
fix 15b all deform 100 x wiggle 0.452068060512316 2500 y wiggle 0.452068060512316 2500 z wiggle ${amp} 2500
fix 15b all deform 100 x wiggle 0.452068060512316 2500 y wiggle 0.452068060512316 2500 z wiggle 0.452068060512316 2500
fix 15c all temp/berendsen 300 300 100
fix 15d all nve
run 7500
Generated 1 of 1 mixed pair_coeff terms from geometric mixing rule
Per MPI rank memory allocation (min/avg/max) = 10.59 | 10.59 | 10.59 Mbytes
   Step          Temp          E_pair         E_mol          TotEng         Press          Volume    
     24527   303.19822     -3770.2074      1798.4859      738.70359      4420.2362      92387.129    
     25000   301.9461      -3779.9366      1847.3629      766.65813      2964.5565      94982.888    
     26000   301.89466     -3758.0656      1838.6587      779.36524      2035.1407      90921.624    
     27000   294.90362     -3798.123       1797.6095      635.76248      4387.6892      92199.324    
     28000   298.99563     -3785.9913      1853.8917      740.75675      3637.4439      94175.957    
     29000   298.88361     -3803.9974      1757.9926      625.85017      3152.8735      89725.144    
     30000   295.97928     -3793.8537      1811.2542      663.29238      4120.0101      94982.888    
     31000   307.29199     -3830.3875      1758.5778      675.21152      2574.7196      90921.624    
     32000   299.49709     -3839.9439      1800.3134      637.70861      3535.1011      92199.324    
     32027   300.72445     -3924.659       1870.3252      633.97724      4505.8355      92199.324    
Loop time of 45.855 on 1 procs for 7500 steps with 3000 atoms

Performance: 14.132 ns/day, 1.698 hours/ns, 163.559 timesteps/s, 490.677 katom-step/s
92.2% CPU use with 1 MPI tasks x no OpenMP threads

MPI task timing breakdown:
Section |  min time  |  avg time  |  max time  |%varavg| %total
---------------------------------------------------------------
Pair    | 39.922     | 39.922     | 39.922     |   0.0 | 87.06
Bond    | 3.1086     | 3.1086     | 3.1086     |   0.0 |  6.78
Neigh   | 1.9864     | 1.9864     | 1.9864     |   0.0 |  4.33
Comm    | 0.32339    | 0.32339    | 0.32339    |   0.0 |  0.71
Output  | 0.002438   | 0.002438   | 0.002438   |   0.0 |  0.01
Modify  | 0.39968    | 0.39968    | 0.39968    |   0.0 |  0.87
Other   |            | 0.1126     |            |       |  0.25

Nlocal:           3000 ave        3000 max        3000 min
Histogram: 1 0 0 0 0 0 0 0 0 0
Nghost:           8777 ave        8777 max        8777 min
Histogram: 1 0 0 0 0 0 0 0 0 0
Neighs:         445662 ave      445662 max      445662 min
Histogram: 1 0 0 0 0 0 0 0 0 0

Total # of neighbors = 445662
Ave neighs/atom = 148.554
Ave special neighs/atom = 4
Neighbor list builds = 122
Dangerous builds = 0
unfix 15d
unfix 15c
unfix 15b
unfix 15a

print "immed_press = ${immed_press}"
immed_press = 3193.10989966555
print "immed_modulus = ${immed_modulus}"
immed_modulus = 41633.7996785157
print "factor = ${factor}"
factor = 1.01231416912463
if "${defm_id} == 99 || ${factor} == 1" then "jump SELF defm_break"

fix 21a all deform 100 x scale ${factor} y scale ${factor} z scale ${factor} remap v
fix 21a all deform 100 x scale 1.01231416912463 y scale ${factor} z scale ${factor} remap v
fix 21a all deform 100 x scale 1.01231416912463 y scale 1.01231416912463 z scale ${factor} remap v
fix 21a all deform 100 x scale 1.01231416912463 y scale 1.01231416912463 z scale 1.01231416912463 remap v
fix 21b all temp/berendsen 300 300 100
fix 21c all nve
run 1250
Generated 1 of 1 mixed pair_coeff terms from geometric mixing rule
Per MPI rank memory allocation (min/avg/max) = 10.59 | 10.59 | 10.59 Mbytes
   Step          Temp          E_pair         E_mol          TotEng         Press          Volume    
     32027   300.63163     -3924.659       1870.3252      633.14748      4505.4241      92199.324    
     33000   306.99603     -3866.6934      1868.6678      746.34982      590.09797      94876.107    
     33277   301.16296     -3815.8088      1906.0008      782.42304      84.014421      95432.661    
Loop time of 6.5472 on 1 procs for 1250 steps with 3000 atoms

Performance: 16.496 ns/day, 1.455 hours/ns, 190.921 timesteps/s, 572.764 katom-step/s
100.6% CPU use with 1 MPI tasks x no OpenMP threads

MPI task timing breakdown:
Section |  min time  |  avg time  |  max time  |%varavg| %total
---------------------------------------------------------------
Pair    | 5.7889     | 5.7889     | 5.7889     |   0.0 | 88.42
Bond    | 0.40634    | 0.40634    | 0.40634    |   0.0 |  6.21
Neigh   | 0.24312    | 0.24312    | 0.24312    |   0.0 |  3.71
Comm    | 0.048068   | 0.048068   | 0.048068   |   0.0 |  0.73
Output  | 0.00010199 | 0.00010199 | 0.00010199 |   0.0 |  0.00
Modify  | 0.042479   | 0.042479   | 0.042479   |   0.0 |  0.65
Other   |            | 0.01816    |            |       |  0.28

Nlocal:           3000 ave        3000 max        3000 min
Histogram: 1 0 0 0 0 0 0 0 0 0
Nghost:           8605 ave        8605 max        8605 min
Histogram: 1 0 0 0 0 0 0 0 0 0
Neighs:         427017 ave      427017 max      427017 min
Histogram: 1 0 0 0 0 0 0 0 0 0

Total # of neighbors = 427017
Ave neighs/atom = 142.339
Ave special neighs/atom = 4
Neighbor list builds = 18
Dangerous builds = 0
unfix 21c
unfix 21b
unfix 21a

fix 22a all temp/berendsen 300 300 100
fix 22b all nve
run 1250
Generated 1 of 1 mixed pair_coeff terms from geometric mixing rule
Per MPI rank memory allocation (min/avg/max) = 10.59 | 10.59 | 10.59 Mbytes
   Step          Temp          E_pair         E_mol          TotEng         Press     
     33277   301.16296     -3815.8088      1906.0008      782.42304      84.014421    
     34000   300.68314     -3796.7781      1873.9403      765.10385      1271.5568    
     34527   297.50006     -3827.4197      1891.0931      723.16007      3581.8976    
Loop time of 6.17097 on 1 procs for 1250 steps with 3000 atoms

Performance: 17.501 ns/day, 1.371 hours/ns, 202.561 timesteps/s, 607.684 katom-step/s
99.7% CPU use with 1 MPI tasks x no OpenMP threads

MPI task timing breakdown:
Section |  min time  |  avg time  |  max time  |%varavg| %total
---------------------------------------------------------------
Pair    | 5.4654     | 5.4654     | 5.4654     |   0.0 | 88.57
Bond    | 0.39145    | 0.39145    | 0.39145    |   0.0 |  6.34
Neigh   | 0.21232    | 0.21232    | 0.21232    |   0.0 |  3.44
Comm    | 0.044656   | 0.044656   | 0.044656   |   0.0 |  0.72
Output  | 0.00013844 | 0.00013844 | 0.00013844 |   0.0 |  0.00
Modify  | 0.040153   | 0.040153   | 0.040153   |   0.0 |  0.65
Other   |            | 0.01686    |            |       |  0.27

Nlocal:           3000 ave        3000 max        3000 min
Histogram: 1 0 0 0 0 0 0 0 0 0
Nghost:           8636 ave        8636 max        8636 min
Histogram: 1 0 0 0 0 0 0 0 0 0
Neighs:         426665 ave      426665 max      426665 min
Histogram: 1 0 0 0 0 0 0 0 0 0

Total # of neighbors = 426665
Ave neighs/atom = 142.22167
Ave special neighs/atom = 4
Neighbor list builds = 18
Dangerous builds = 0
unfix 22b
unfix 22a

shell cd ..
next defm_id
jump SELF defm_start
print "defm_id = ${defm_id}"
defm_id = 02
shell mkdir defm_${defm_id}
shell mkdir defm_02
shell cd defm_${defm_id}
shell cd defm_02

fix 15a all ave/time 1 25 25 c_thermo_press v_vol file press_vol.data
fix 15b all deform 100 x wiggle ${amp} 2500 y wiggle ${amp} 2500 z wiggle ${amp} 2500
fix 15b all deform 100 x wiggle 0.456981912629901 2500 y wiggle ${amp} 2500 z wiggle ${amp} 2500
fix 15b all deform 100 x wiggle 0.456981912629901 2500 y wiggle 0.456981912629901 2500 z wiggle ${amp} 2500
fix 15b all deform 100 x wiggle 0.456981912629901 2500 y wiggle 0.456981912629901 2500 z wiggle 0.456981912629901 2500
fix 15c all temp/berendsen 300 300 100
fix 15d all nve
run 7500
Generated 1 of 1 mixed pair_coeff terms from geometric mixing rule
Per MPI rank memory allocation (min/avg/max) = 10.59 | 10.59 | 10.59 Mbytes
   Step          Temp          E_pair         E_mol          TotEng         Press          Volume    
     34527   297.50006     -3827.4197      1891.0931      723.16007      3581.8976      95432.661    
     35000   306.91441     -3792.6013      1812.1204      763.16499      2853.9695      98113.988    
     36000   304.26966     -3794.8658      1817.1025      742.23989      2013.4688      93918.845    
     37000   302.99084     -3863.8926      1795.116       639.79465      3039.5911      95238.664    
     38000   295.59441     -3750.0567      1846.1353      738.52976      2053.0354      97280.457    
     39000   302.36217     -3865.0313      1794.7158      632.63574      1422.8218      92682.924    
     40000   297.29138     -3782.8979      1854.8692      729.59245      3263.8202      98113.988    
     41000   309.33199     -3800.1275      1797.9607      763.09082      1494.0792      93918.845    
     42000   298.47086     -3861.0627      1804.1597      611.26208      3003.5309      95238.664    
     42027   299.87381     -3895.8911      1832.7921      617.60768      3688.1294      95238.664    
Loop time of 41.4373 on 1 procs for 7500 steps with 3000 atoms

Performance: 15.638 ns/day, 1.535 hours/ns, 180.996 timesteps/s, 542.989 katom-step/s
95.4% CPU use with 1 MPI tasks x no OpenMP threads

MPI task timing breakdown:
Section |  min time  |  avg time  |  max time  |%varavg| %total
---------------------------------------------------------------
Pair    | 35.998     | 35.998     | 35.998     |   0.0 | 86.87
Bond    | 2.9958     | 2.9958     | 2.9958     |   0.0 |  7.23
Neigh   | 1.6708     | 1.6708     | 1.6708     |   0.0 |  4.03
Comm    | 0.30683    | 0.30683    | 0.30683    |   0.0 |  0.74
Output  | 0.0024145  | 0.0024145  | 0.0024145  |   0.0 |  0.01
Modify  | 0.35375    | 0.35375    | 0.35375    |   0.0 |  0.85
Other   |            | 0.11       |            |       |  0.27

Nlocal:           3000 ave        3000 max        3000 min
Histogram: 1 0 0 0 0 0 0 0 0 0
Nghost:           8722 ave        8722 max        8722 min
Histogram: 1 0 0 0 0 0 0 0 0 0
Neighs:         431114 ave      431114 max      431114 min
Histogram: 1 0 0 0 0 0 0 0 0 0

Total # of neighbors = 431114
Ave neighs/atom = 143.70467
Ave special neighs/atom = 4
Neighbor list builds = 117
Dangerous builds = 0
unfix 15d
unfix 15c
unfix 15b
unfix 15a

print "immed_press = ${immed_press}"
immed_press = 2114.40043110368
print "immed_modulus = ${immed_modulus}"
immed_modulus = 34936.4576621496
print "factor = ${factor}"
factor = 1.01231404444088
if "${defm_id} == 99 || ${factor} == 1" then "jump SELF defm_break"

fix 21a all deform 100 x scale ${factor} y scale ${factor} z scale ${factor} remap v
fix 21a all deform 100 x scale 1.01231404444088 y scale ${factor} z scale ${factor} remap v
fix 21a all deform 100 x scale 1.01231404444088 y scale 1.01231404444088 z scale ${factor} remap v
fix 21a all deform 100 x scale 1.01231404444088 y scale 1.01231404444088 z scale 1.01231404444088 remap v
fix 21b all temp/berendsen 300 300 100
fix 21c all nve
run 1250
Generated 1 of 1 mixed pair_coeff terms from geometric mixing rule
Per MPI rank memory allocation (min/avg/max) = 10.59 | 10.59 | 10.59 Mbytes
   Step          Temp          E_pair         E_mol          TotEng         Press          Volume    
     42027   299.76426     -3895.8911      1832.7921      616.62842      3687.6594      95238.664    
     43000   303.52211     -3830.5517      1908.8771      791.64592     -120.16081      98003.659    
     43277   301.05677     -3809.3405      1916.8922      798.83343     -695.05993      98578.554    
Loop time of 6.1152 on 1 procs for 1250 steps with 3000 atoms

Performance: 17.661 ns/day, 1.359 hours/ns, 204.409 timesteps/s, 613.226 katom-step/s
101.7% CPU use with 1 MPI tasks x no OpenMP threads

MPI task timing breakdown:
Section |  min time  |  avg time  |  max time  |%varavg| %total
---------------------------------------------------------------
Pair    | 5.4126     | 5.4126     | 5.4126     |   0.0 | 88.51
Bond    | 0.38926    | 0.38926    | 0.38926    |   0.0 |  6.37
Neigh   | 0.21262    | 0.21262    | 0.21262    |   0.0 |  3.48
Comm    | 0.043882   | 0.043882   | 0.043882   |   0.0 |  0.72
Output  | 0.00010813 | 0.00010813 | 0.00010813 |   0.0 |  0.00
Modify  | 0.039974   | 0.039974   | 0.039974   |   0.0 |  0.65
Other   |            | 0.01674    |            |       |  0.27

Nlocal:           3000 ave        3000 max        3000 min
Histogram: 1 0 0 0 0 0 0 0 0 0
Nghost:           8456 ave        8456 max        8456 min
Histogram: 1 0 0 0 0 0 0 0 0 0
Neighs:         412700 ave      412700 max      412700 min
Histogram: 1 0 0 0 0 0 0 0 0 0

Total # of neighbors = 412700
Ave neighs/atom = 137.56667
Ave special neighs/atom = 4
Neighbor list builds = 18
Dangerous builds = 0
unfix 21c
unfix 21b
unfix 21a

fix 22a all temp/berendsen 300 300 100
fix 22b all nve
run 1250
Generated 1 of 1 mixed pair_coeff terms from geometric mixing rule
Per MPI rank memory allocation (min/avg/max) = 10.59 | 10.59 | 10.59 Mbytes
   Step          Temp          E_pair         E_mol          TotEng         Press     
     43277   301.05677     -3809.3405      1916.8922      798.83343     -695.05993    
     44000   302.88541     -3806.0582      1887.6011      789.17165      92.881672    
     44527   296.68076     -3780.9845      1914.7512      785.92925      2541.6376    
Loop time of 6.01488 on 1 procs for 1250 steps with 3000 atoms

Performance: 17.955 ns/day, 1.337 hours/ns, 207.818 timesteps/s, 623.454 katom-step/s
99.6% CPU use with 1 MPI tasks x no OpenMP threads

MPI task timing breakdown:
Section |  min time  |  avg time  |  max time  |%varavg| %total
---------------------------------------------------------------
Pair    | 5.3192     | 5.3192     | 5.3192     |   0.0 | 88.43
Bond    | 0.39314    | 0.39314    | 0.39314    |   0.0 |  6.54
Neigh   | 0.2015     | 0.2015     | 0.2015     |   0.0 |  3.35
Comm    | 0.043889   | 0.043889   | 0.043889   |   0.0 |  0.73
Output  | 0.00011578 | 0.00011578 | 0.00011578 |   0.0 |  0.00
Modify  | 0.040251   | 0.040251   | 0.040251   |   0.0 |  0.67
Other   |            | 0.01676    |            |       |  0.28

Nlocal:           3000 ave        3000 max        3000 min
Histogram: 1 0 0 0 0 0 0 0 0 0
Nghost:           8513 ave        8513 max        8513 min
Histogram: 1 0 0 0 0 0 0 0 0 0
Neighs:         412510 ave      412510 max      412510 min
Histogram: 1 0 0 0 0 0 0 0 0 0

Total # of neighbors = 412510
Ave neighs/atom = 137.50333
Ave special neighs/atom = 4
Neighbor list builds = 17
Dangerous builds = 0
unfix 22b
unfix 22a

shell cd ..
next defm_id
jump SELF defm_start
print "defm_id = ${defm_id}"
defm_id = 03
shell mkdir defm_${defm_id}
shell mkdir defm_03
shell cd defm_${defm_id}
shell cd defm_03

fix 15a all ave/time 1 25 25 c_thermo_press v_vol file press_vol.data
fix 15b all deform 100 x wiggle ${amp} 2500 y wiggle ${amp} 2500 z wiggle ${amp} 2500
fix 15b all deform 100 x wiggle 0.461949123499834 2500 y wiggle ${amp} 2500 z wiggle ${amp} 2500
fix 15b all deform 100 x wiggle 0.461949123499834 2500 y wiggle 0.461949123499834 2500 z wiggle ${amp} 2500
fix 15b all deform 100 x wiggle 0.461949123499834 2500 y wiggle 0.461949123499834 2500 z wiggle 0.461949123499834 2500
fix 15c all temp/berendsen 300 300 100
fix 15d all nve
run 7500
Generated 1 of 1 mixed pair_coeff terms from geometric mixing rule
Per MPI rank memory allocation (min/avg/max) = 10.59 | 10.59 | 10.59 Mbytes
   Step          Temp          E_pair         E_mol          TotEng         Press          Volume    
     44527   296.68076     -3780.9845      1914.7512      785.92925      2541.6376      98578.554    
     45000   303.43149     -3757.6282      1891.1895      846.07171      1408.9784      101348.27    
     46000   300.95296     -3774.281       1906.0256      822.09831      184.32732      97014.836    
     47000   296.59848     -3826.563       1864.4882      689.35226      2372.2568      98378.162    
     48000   305.73155     -3717.7655      1844.82        860.1262       1828.9464      100487.26    
     49000   300.19184     -3817.2273      1836.3547      702.67714      746.72113      95738.173    
     50000   294.53649     -3737.7749      1897.8128      793.03196      1760.6229      101348.27    
     51000   304.01877     -3790.1183      1849.5846      777.22666      637.38345      97014.836    
     52000   301.91371     -3821.2688      1795.8391      673.51269      2304.6625      98378.162    
     52027   300.49421     -3854.6704      1849.4418      681.02419      2887.3667      98378.162    
Loop time of 39.2394 on 1 procs for 7500 steps with 3000 atoms

Performance: 16.514 ns/day, 1.453 hours/ns, 191.135 timesteps/s, 573.404 katom-step/s
96.0% CPU use with 1 MPI tasks x no OpenMP threads

MPI task timing breakdown:
Section |  min time  |  avg time  |  max time  |%varavg| %total
---------------------------------------------------------------
Pair    | 34.125     | 34.125     | 34.125     |   0.0 | 86.97
Bond    | 2.9848     | 2.9848     | 2.9848     |   0.0 |  7.61
Neigh   | 1.4194     | 1.4194     | 1.4194     |   0.0 |  3.62
Comm    | 0.27507    | 0.27507    | 0.27507    |   0.0 |  0.70
Output  | 0.0025143  | 0.0025143  | 0.0025143  |   0.0 |  0.01
Modify  | 0.3292     | 0.3292     | 0.3292     |   0.0 |  0.84
Other   |            | 0.1036     |            |       |  0.26

Nlocal:           3000 ave        3000 max        3000 min
Histogram: 1 0 0 0 0 0 0 0 0 0
Nghost:           8423 ave        8423 max        8423 min
Histogram: 1 0 0 0 0 0 0 0 0 0
Neighs:         413566 ave      413566 max      413566 min
Histogram: 1 0 0 0 0 0 0 0 0 0

Total # of neighbors = 413566
Ave neighs/atom = 137.85533
Ave special neighs/atom = 4
Neighbor list builds = 114
Dangerous builds = 0
unfix 15d
unfix 15c
unfix 15b
unfix 15a

print "immed_press = ${immed_press}"
immed_press = 1292.18028361204
print "immed_modulus = ${immed_modulus}"
immed_modulus = 29642.6612293674
print "factor = ${factor}"
factor = 1.01231494738922
if "${defm_id} == 99 || ${factor} == 1" then "jump SELF defm_break"

fix 21a all deform 100 x scale ${factor} y scale ${factor} z scale ${factor} remap v
fix 21a all deform 100 x scale 1.01231494738922 y scale ${factor} z scale ${factor} remap v
fix 21a all deform 100 x scale 1.01231494738922 y scale 1.01231494738922 z scale ${factor} remap v
fix 21a all deform 100 x scale 1.01231494738922 y scale 1.01231494738922 z scale 1.01231494738922 remap v
fix 21b all temp/berendsen 300 300 100
fix 21c all nve
run 1250
Generated 1 of 1 mixed pair_coeff terms from geometric mixing rule
Per MPI rank memory allocation (min/avg/max) = 10.59 | 10.59 | 10.59 Mbytes
   Step          Temp          E_pair         E_mol          TotEng         Press          Volume    
     52027   300.37363     -3854.6704      1849.4418      679.94625      2886.8658      98378.162    
     53000   307.81321     -3740.6211      1869.7364      880.79588     -137.32023      101234.51    
     53277   299.17395     -3750.5036      1952.8805      876.82728     -1476.2904      101828.41    
Loop time of 5.94734 on 1 procs for 1250 steps with 3000 atoms

Performance: 18.159 ns/day, 1.322 hours/ns, 210.178 timesteps/s, 630.534 katom-step/s
101.8% CPU use with 1 MPI tasks x no OpenMP threads

MPI task timing breakdown:
Section |  min time  |  avg time  |  max time  |%varavg| %total
---------------------------------------------------------------
Pair    | 5.2444     | 5.2444     | 5.2444     |   0.0 | 88.18
Bond    | 0.38884    | 0.38884    | 0.38884    |   0.0 |  6.54
Neigh   | 0.21465    | 0.21465    | 0.21465    |   0.0 |  3.61
Comm    | 0.04302    | 0.04302    | 0.04302    |   0.0 |  0.72
Output  | 0.00015621 | 0.00015621 | 0.00015621 |   0.0 |  0.00
Modify  | 0.039761   | 0.039761   | 0.039761   |   0.0 |  0.67
Other   |            | 0.0165     |            |       |  0.28

Nlocal:           3000 ave        3000 max        3000 min
Histogram: 1 0 0 0 0 0 0 0 0 0
Nghost:           8300 ave        8300 max        8300 min
Histogram: 1 0 0 0 0 0 0 0 0 0
Neighs:         399259 ave      399259 max      399259 min
Histogram: 1 0 0 0 0 0 0 0 0 0

Total # of neighbors = 399259
Ave neighs/atom = 133.08633
Ave special neighs/atom = 4
Neighbor list builds = 18
Dangerous builds = 0
unfix 21c
unfix 21b
unfix 21a

fix 22a all temp/berendsen 300 300 100
fix 22b all nve
run 1250
Generated 1 of 1 mixed pair_coeff terms from geometric mixing rule
Per MPI rank memory allocation (min/avg/max) = 10.59 | 10.59 | 10.59 Mbytes
   Step          Temp          E_pair         E_mol          TotEng         Press     
     53277   299.17395     -3750.5036      1952.8805      876.82728     -1476.2904    
     54000   300.19083     -3744.0687      1951.4363      890.90827     -481.34947    
     54527   301.4602      -3748.9696      1921.9901      867.90878      2322.3171    
Loop time of 5.86461 on 1 procs for 1250 steps with 3000 atoms

Performance: 18.416 ns/day, 1.303 hours/ns, 213.143 timesteps/s, 639.429 katom-step/s
99.6% CPU use with 1 MPI tasks x no OpenMP threads

MPI task timing breakdown:
Section |  min time  |  avg time  |  max time  |%varavg| %total
---------------------------------------------------------------
Pair    | 5.1756     | 5.1756     | 5.1756     |   0.0 | 88.25
Bond    | 0.39183    | 0.39183    | 0.39183    |   0.0 |  6.68
Neigh   | 0.19617    | 0.19617    | 0.19617    |   0.0 |  3.35
Comm    | 0.043458   | 0.043458   | 0.043458   |   0.0 |  0.74
Output  | 9.2221e-05 | 9.2221e-05 | 9.2221e-05 |   0.0 |  0.00
Modify  | 0.040637   | 0.040637   | 0.040637   |   0.0 |  0.69
Other   |            | 0.01679    |            |       |  0.29

Nlocal:           3000 ave        3000 max        3000 min
Histogram: 1 0 0 0 0 0 0 0 0 0
Nghost:           8334 ave        8334 max        8334 min
Histogram: 1 0 0 0 0 0 0 0 0 0
Neighs:         398954 ave      398954 max      398954 min
Histogram: 1 0 0 0 0 0 0 0 0 0

Total # of neighbors = 398954
Ave neighs/atom = 132.98467
Ave special neighs/atom = 4
Neighbor list builds = 17
Dangerous builds = 0
unfix 22b
unfix 22a

shell cd ..
next defm_id
jump SELF defm_start
print "defm_id = ${defm_id}"
defm_id = 04
shell mkdir defm_${defm_id}
shell mkdir defm_04
shell cd defm_${defm_id}
shell cd defm_04

fix 15a all ave/time 1 25 25 c_thermo_press v_vol file press_vol.data
fix 15b all deform 100 x wiggle ${amp} 2500 y wiggle ${amp} 2500 z wiggle ${amp} 2500
fix 15b all deform 100 x wiggle 0.466970717124428 2500 y wiggle ${amp} 2500 z wiggle ${amp} 2500
fix 15b all deform 100 x wiggle 0.466970717124428 2500 y wiggle 0.466970717124428 2500 z wiggle ${amp} 2500
fix 15b all deform 100 x wiggle 0.466970717124428 2500 y wiggle 0.466970717124428 2500 z wiggle 0.466970717124428 2500
fix 15c all temp/berendsen 300 300 100
fix 15d all nve
run 7500
Generated 1 of 1 mixed pair_coeff terms from geometric mixing rule
Per MPI rank memory allocation (min/avg/max) = 10.59 | 10.59 | 10.59 Mbytes
   Step          Temp          E_pair         E_mol          TotEng         Press          Volume    
     54527   301.4602      -3748.9696      1921.9901      867.90878      2322.3171      101828.41    
     55000   301.81723     -3703.9347      1926.9096      921.05475      824.26105      104689.43    
     56000   309.28515     -3748.2212      1876.1252      892.74296     -187.58645      100213.14    
     57000   299.08296     -3773.0268      1911.7876      812.39779      1333.5136      101621.41    
     58000   300.81189     -3684.1866      1959.1208      964.02681      830.93715      103800.04    
     59000   305.00459     -3821.3547      1857.9552      763.17357     -79.336659      98894.385    
     60000   297.08657     -3667.8335      1902.0747      890.03162      1540.8873      104689.43    
     61000   300.85022     -3775.7598      1937.0275      850.70305      86.99945       100213.14    
     62000   298.51587     -3776.1012      1895.6365      788.10278      1675.0488      101621.41    
     62027   302.18922     -3778.8771      1875.145       797.67305      2120.5809      101621.41    
Loop time of 36.1463 on 1 procs for 7500 steps with 3000 atoms

Performance: 17.927 ns/day, 1.339 hours/ns, 207.490 timesteps/s, 622.471 katom-step/s
99.3% CPU use with 1 MPI tasks x no OpenMP threads

MPI task timing breakdown:
Section |  min time  |  avg time  |  max time  |%varavg| %total
---------------------------------------------------------------
Pair    | 31.383     | 31.383     | 31.383     |   0.0 | 86.82
Bond    | 2.8145     | 2.8145     | 2.8145     |   0.0 |  7.79
Neigh   | 1.2739     | 1.2739     | 1.2739     |   0.0 |  3.52
Comm    | 0.25788    | 0.25788    | 0.25788    |   0.0 |  0.71
Output  | 0.0024628  | 0.0024628  | 0.0024628  |   0.0 |  0.01
Modify  | 0.3141     | 0.3141     | 0.3141     |   0.0 |  0.87
Other   |            | 0.1005     |            |       |  0.28

Nlocal:           3000 ave        3000 max        3000 min
Histogram: 1 0 0 0 0 0 0 0 0 0
Nghost:           8326 ave        8326 max        8326 min
Histogram: 1 0 0 0 0 0 0 0 0 0
Neighs:         403371 ave      403371 max      403371 min
Histogram: 1 0 0 0 0 0 0 0 0 0

Total # of neighbors = 403371
Ave neighs/atom = 134.457
Ave special neighs/atom = 4
Neighbor list builds = 109
Dangerous builds = 0
unfix 15d
unfix 15c
unfix 15b
unfix 15a

print "immed_press = ${immed_press}"
immed_press = 588.857154648829
print "immed_modulus = ${immed_modulus}"
immed_modulus = 23718.2747109665
print "factor = ${factor}"
factor = 1.01231380808451
if "${defm_id} == 99 || ${factor} == 1" then "jump SELF defm_break"

fix 21a all deform 100 x scale ${factor} y scale ${factor} z scale ${factor} remap v
fix 21a all deform 100 x scale 1.01231380808451 y scale ${factor} z scale ${factor} remap v
fix 21a all deform 100 x scale 1.01231380808451 y scale 1.01231380808451 z scale ${factor} remap v
fix 21a all deform 100 x scale 1.01231380808451 y scale 1.01231380808451 z scale 1.01231380808451 remap v
fix 21b all temp/berendsen 300 300 100
fix 21c all nve
run 1250
Generated 1 of 1 mixed pair_coeff terms from geometric mixing rule
Per MPI rank memory allocation (min/avg/max) = 10.59 | 10.59 | 10.59 Mbytes
   Step          Temp          E_pair         E_mol          TotEng         Press          Volume    
     62027   302.14462     -3778.8771      1875.145       797.27437      2120.4015      101621.41    
     63000   309.91087     -3689.2674      1885.1088      966.27397     -907.72747      104571.65    
     63277   297.33318     -3646.8012      2009.5878      1020.7816     -2036.2433      105185.06    
Loop time of 5.82058 on 1 procs for 1250 steps with 3000 atoms

Performance: 18.555 ns/day, 1.293 hours/ns, 214.755 timesteps/s, 644.265 katom-step/s
101.0% CPU use with 1 MPI tasks x no OpenMP threads

MPI task timing breakdown:
Section |  min time  |  avg time  |  max time  |%varavg| %total
---------------------------------------------------------------
Pair    | 5.1274     | 5.1274     | 5.1274     |   0.0 | 88.09
Bond    | 0.39596    | 0.39596    | 0.39596    |   0.0 |  6.80
Neigh   | 0.19507    | 0.19507    | 0.19507    |   0.0 |  3.35
Comm    | 0.043748   | 0.043748   | 0.043748   |   0.0 |  0.75
Output  | 0.00012578 | 0.00012578 | 0.00012578 |   0.0 |  0.00
Modify  | 0.041377   | 0.041377   | 0.041377   |   0.0 |  0.71
Other   |            | 0.01687    |            |       |  0.29

Nlocal:           3000 ave        3000 max        3000 min
Histogram: 1 0 0 0 0 0 0 0 0 0
Nghost:           8226 ave        8226 max        8226 min
Histogram: 1 0 0 0 0 0 0 0 0 0
Neighs:         385948 ave      385948 max      385948 min
Histogram: 1 0 0 0 0 0 0 0 0 0

Total # of neighbors = 385948
Ave neighs/atom = 128.64933
Ave special neighs/atom = 4
Neighbor list builds = 17
Dangerous builds = 0
unfix 21c
unfix 21b
unfix 21a

fix 22a all temp/berendsen 300 300 100
fix 22b all nve
run 1250
Generated 1 of 1 mixed pair_coeff terms from geometric mixing rule
Per MPI rank memory allocation (min/avg/max) = 10.59 | 10.59 | 10.59 Mbytes
   Step          Temp          E_pair         E_mol          TotEng         Press     
     63277   297.33318     -3646.8012      2009.5878      1020.7816     -2036.2433    
     64000   299.37394     -3650.8011      1986.3788      1011.8159     -1263.7711    
     64527   302.34786     -3656.1996      1959.8064      1006.4301      1806.3556    
Loop time of 5.74751 on 1 procs for 1250 steps with 3000 atoms

Performance: 18.791 ns/day, 1.277 hours/ns, 217.485 timesteps/s, 652.456 katom-step/s
99.5% CPU use with 1 MPI tasks x no OpenMP threads

MPI task timing breakdown:
Section |  min time  |  avg time  |  max time  |%varavg| %total
---------------------------------------------------------------
Pair    | 5.0516     | 5.0516     | 5.0516     |   0.0 | 87.89
Bond    | 0.39644    | 0.39644    | 0.39644    |   0.0 |  6.90
Neigh   | 0.19754    | 0.19754    | 0.19754    |   0.0 |  3.44
Comm    | 0.043552   | 0.043552   | 0.043552   |   0.0 |  0.76
Output  | 0.00017545 | 0.00017545 | 0.00017545 |   0.0 |  0.00
Modify  | 0.041095   | 0.041095   | 0.041095   |   0.0 |  0.71
Other   |            | 0.0171     |            |       |  0.30

Nlocal:           3000 ave        3000 max        3000 min
Histogram: 1 0 0 0 0 0 0 0 0 0
Nghost:           8307 ave        8307 max        8307 min
Histogram: 1 0 0 0 0 0 0 0 0 0
Neighs:         386228 ave      386228 max      386228 min
Histogram: 1 0 0 0 0 0 0 0 0 0

Total # of neighbors = 386228
Ave neighs/atom = 128.74267
Ave special neighs/atom = 4
Neighbor list builds = 17
Dangerous builds = 0
unfix 22b
unfix 22a

shell cd ..
next defm_id
jump SELF defm_start
print "defm_id = ${defm_id}"
defm_id = 05
shell mkdir defm_${defm_id}
shell mkdir defm_05
shell cd defm_${defm_id}
shell cd defm_05

fix 15a all ave/time 1 25 25 c_thermo_press v_vol file press_vol.data
fix 15b all deform 100 x wiggle ${amp} 2500 y wiggle ${amp} 2500 z wiggle ${amp} 2500
fix 15b all deform 100 x wiggle 0.472046398807258 2500 y wiggle ${amp} 2500 z wiggle ${amp} 2500
fix 15b all deform 100 x wiggle 0.472046398807258 2500 y wiggle 0.472046398807258 2500 z wiggle ${amp} 2500
fix 15b all deform 100 x wiggle 0.472046398807258 2500 y wiggle 0.472046398807258 2500 z wiggle 0.472046398807258 2500
fix 15c all temp/berendsen 300 300 100
fix 15d all nve
run 7500
Generated 1 of 1 mixed pair_coeff terms from geometric mixing rule
Per MPI rank memory allocation (min/avg/max) = 10.59 | 10.59 | 10.59 Mbytes
   Step          Temp          E_pair         E_mol          TotEng         Press          Volume    
     64527   302.34786     -3656.1996      1959.8064      1006.4301      1806.3556      105185.06    
     65000   298.24815     -3579.159       1994.0396      1081.0548      539.20204      108140.4     
     66000   309.9245      -3693.9716      1915.3842      991.967       -889.21021      103516.55    
     67000   295.64234     -3699.4652      1967.708       911.12255      807.022        104971.24    
     68000   299.87125     -3585.9071      1987.4559      1082.2326      592.06702      107221.69    
     69000   300.33173     -3782.1586      1933.223       835.8647      -77.696063      102154.33    
     70000   297.71695     -3607.7186      1968.291       1021.9979      1479.0888      108140.4     
     71000   294.79699     -3675.0825      1983.5919      943.83215     -482.05663      103516.55    
     72000   295.92662     -3703.2798      1957.2454      899.38666      505.55625      104971.24    
     72027   302.46437     -3711.5294      1921.8256      914.16109      1900.0985      104971.24    
Loop time of 40.362 on 1 procs for 7500 steps with 3000 atoms

Performance: 16.055 ns/day, 1.495 hours/ns, 185.819 timesteps/s, 557.456 katom-step/s
92.0% CPU use with 1 MPI tasks x no OpenMP threads

MPI task timing breakdown:
Section |  min time  |  avg time  |  max time  |%varavg| %total
---------------------------------------------------------------
Pair    | 34.834     | 34.834     | 34.834     |   0.0 | 86.30
Bond    | 3.2401     | 3.2401     | 3.2401     |   0.0 |  8.03
Neigh   | 1.4638     | 1.4638     | 1.4638     |   0.0 |  3.63
Comm    | 0.28976    | 0.28976    | 0.28976    |   0.0 |  0.72
Output  | 0.0025218  | 0.0025218  | 0.0025218  |   0.0 |  0.01
Modify  | 0.41475    | 0.41475    | 0.41475    |   0.0 |  1.03
Other   |            | 0.1168     |            |       |  0.29

Nlocal:           3000 ave        3000 max        3000 min
Histogram: 1 0 0 0 0 0 0 0 0 0
Nghost:           8210 ave        8210 max        8210 min
Histogram: 1 0 0 0 0 0 0 0 0 0
Neighs:         389707 ave      389707 max      389707 min
Histogram: 1 0 0 0 0 0 0 0 0 0

Total # of neighbors = 389707
Ave neighs/atom = 129.90233
Ave special neighs/atom = 4
Neighbor list builds = 105
Dangerous builds = 0
unfix 15d
unfix 15c
unfix 15b
unfix 15a

print "immed_press = ${immed_press}"
immed_press = 155.704759668896
print "immed_modulus = ${immed_modulus}"
immed_modulus = 20773.1331131102
print "factor = ${factor}"
factor = 1.01231446334489
if "${defm_id} == 99 || ${factor} == 1" then "jump SELF defm_break"

fix 21a all deform 100 x scale ${factor} y scale ${factor} z scale ${factor} remap v
fix 21a all deform 100 x scale 1.01231446334489 y scale ${factor} z scale ${factor} remap v
fix 21a all deform 100 x scale 1.01231446334489 y scale 1.01231446334489 z scale ${factor} remap v
fix 21a all deform 100 x scale 1.01231446334489 y scale 1.01231446334489 z scale 1.01231446334489 remap v
fix 21b all temp/berendsen 300 300 100
fix 21c all nve
run 1250
Generated 1 of 1 mixed pair_coeff terms from geometric mixing rule
Per MPI rank memory allocation (min/avg/max) = 10.59 | 10.59 | 10.59 Mbytes
   Step          Temp          E_pair         E_mol          TotEng         Press          Volume    
     72027   302.33245     -3711.5294      1921.8256      912.98177      1899.585       104971.24    
     73000   299.6587      -3602.3892      1996.1384      1072.5329     -898.89514      108018.9     
     73277   298.27081     -3602.4661      2059.7572      1123.6679     -1823.7051      108652.56    
Loop time of 5.73232 on 1 procs for 1250 steps with 3000 atoms

Performance: 18.841 ns/day, 1.274 hours/ns, 218.062 timesteps/s, 654.185 katom-step/s
101.3% CPU use with 1 MPI tasks x no OpenMP threads

MPI task timing breakdown:
Section |  min time  |  avg time  |  max time  |%varavg| %total
---------------------------------------------------------------
Pair    | 5.0329     | 5.0329     | 5.0329     |   0.0 | 87.80
Bond    | 0.3993     | 0.3993     | 0.3993     |   0.0 |  6.97
Neigh   | 0.19723    | 0.19723    | 0.19723    |   0.0 |  3.44
Comm    | 0.043697   | 0.043697   | 0.043697   |   0.0 |  0.76
Output  | 0.00010067 | 0.00010067 | 0.00010067 |   0.0 |  0.00
Modify  | 0.041935   | 0.041935   | 0.041935   |   0.0 |  0.73
Other   |            | 0.01718    |            |       |  0.30

Nlocal:           3000 ave        3000 max        3000 min
Histogram: 1 0 0 0 0 0 0 0 0 0
Nghost:           7913 ave        7913 max        7913 min
Histogram: 1 0 0 0 0 0 0 0 0 0
Neighs:         374041 ave      374041 max      374041 min
Histogram: 1 0 0 0 0 0 0 0 0 0

Total # of neighbors = 374041
Ave neighs/atom = 124.68033
Ave special neighs/atom = 4
Neighbor list builds = 17
Dangerous builds = 0
unfix 21c
unfix 21b
unfix 21a

fix 22a all temp/berendsen 300 300 100
fix 22b all nve
run 1250
Generated 1 of 1 mixed pair_coeff terms from geometric mixing rule
Per MPI rank memory allocation (min/avg/max) = 10.59 | 10.59 | 10.59 Mbytes
   Step          Temp          E_pair         E_mol          TotEng         Press     
     73277   298.27081     -3602.4661      2059.7572      1123.6679     -1823.7051    
     74000   300.4081      -3584.6968      2003.5419      1104.3281     -1787.6491    
     74527   297.69231     -3579.6599      2045.4174      1126.9628      1300.8826    
Loop time of 5.56036 on 1 procs for 1250 steps with 3000 atoms

Performance: 19.423 ns/day, 1.236 hours/ns, 224.806 timesteps/s, 674.417 katom-step/s
99.5% CPU use with 1 MPI tasks x no OpenMP threads

MPI task timing breakdown:
Section |  min time  |  avg time  |  max time  |%varavg| %total
---------------------------------------------------------------
Pair    | 4.898      | 4.898      | 4.898      |   0.0 | 88.09
Bond    | 0.39325    | 0.39325    | 0.39325    |   0.0 |  7.07
Neigh   | 0.16873    | 0.16873    | 0.16873    |   0.0 |  3.03
Comm    | 0.042516   | 0.042516   | 0.042516   |   0.0 |  0.76
Output  | 9.876e-05  | 9.876e-05  | 9.876e-05  |   0.0 |  0.00
Modify  | 0.040965   | 0.040965   | 0.040965   |   0.0 |  0.74
Other   |            | 0.01685    |            |       |  0.30

Nlocal:           3000 ave        3000 max        3000 min
Histogram: 1 0 0 0 0 0 0 0 0 0
Nghost:           8101 ave        8101 max        8101 min
Histogram: 1 0 0 0 0 0 0 0 0 0
Neighs:         373795 ave      373795 max      373795 min
Histogram: 1 0 0 0 0 0 0 0 0 0

Total # of neighbors = 373795
Ave neighs/atom = 124.59833
Ave special neighs/atom = 4
Neighbor list builds = 15
Dangerous builds = 0
unfix 22b
unfix 22a

shell cd ..
next defm_id
jump SELF defm_start
print "defm_id = ${defm_id}"
defm_id = 06
shell mkdir defm_${defm_id}
shell mkdir defm_06
shell cd defm_${defm_id}
shell cd defm_06

fix 15a all ave/time 1 25 25 c_thermo_press v_vol file press_vol.data
fix 15b all deform 100 x wiggle ${amp} 2500 y wiggle ${amp} 2500 z wiggle ${amp} 2500
fix 15b all deform 100 x wiggle 0.477177540060516 2500 y wiggle ${amp} 2500 z wiggle ${amp} 2500
fix 15b all deform 100 x wiggle 0.477177540060516 2500 y wiggle 0.477177540060516 2500 z wiggle ${amp} 2500
fix 15b all deform 100 x wiggle 0.477177540060516 2500 y wiggle 0.477177540060516 2500 z wiggle 0.477177540060516 2500
fix 15c all temp/berendsen 300 300 100
fix 15d all nve
run 7500
Generated 1 of 1 mixed pair_coeff terms from geometric mixing rule
Per MPI rank memory allocation (min/avg/max) = 10.59 | 10.59 | 10.59 Mbytes
   Step          Temp          E_pair         E_mol          TotEng         Press          Volume    
     74527   297.69231     -3579.6599      2045.4174      1126.9628      1300.8826      108652.56    
     75000   300.9595      -3515.9106      2012.4538      1186.9555     -295.344        111705.33    
     76000   302.41708     -3604.2151      2023.3248      1122.5519     -1720.1115      106929.05    
     77000   302.17943     -3637.1636      1963.8245      1027.9786      925.6884       108431.69    
     78000   299.76549     -3506.2471      2040.123       1213.6143      1003.1863      110756.33    
     79000   298.6783      -3641.3628      1937.7207      966.37747     -336.13228      105521.92    
     80000   302.22484     -3483.9847      1941.7789      1159.5178      397.63532      111705.33    
     81000   302.42781     -3586.8598      1977.5006      1094.1788     -1932.4011      106929.05    
     82000   298.49382     -3581.6189      1951.1784      1037.9299      718.08888      108431.69    
     82027   301.11406     -3578.5361      1944.8786      1058.1364      1344.2009      108431.69    
Loop time of 42.2336 on 1 procs for 7500 steps with 3000 atoms

Performance: 15.343 ns/day, 1.564 hours/ns, 177.584 timesteps/s, 532.751 katom-step/s
88.3% CPU use with 1 MPI tasks x no OpenMP threads

MPI task timing breakdown:
Section |  min time  |  avg time  |  max time  |%varavg| %total
---------------------------------------------------------------
Pair    | 36.366     | 36.366     | 36.366     |   0.0 | 86.11
Bond    | 3.5502     | 3.5502     | 3.5502     |   0.0 |  8.41
Neigh   | 1.473      | 1.473      | 1.473      |   0.0 |  3.49
Comm    | 0.30571    | 0.30571    | 0.30571    |   0.0 |  0.72
Output  | 0.0049113  | 0.0049113  | 0.0049113  |   0.0 |  0.01
Modify  | 0.41004    | 0.41004    | 0.41004    |   0.0 |  0.97
Other   |            | 0.1233     |            |       |  0.29

Nlocal:           3000 ave        3000 max        3000 min
Histogram: 1 0 0 0 0 0 0 0 0 0
Nghost:           8113 ave        8113 max        8113 min
Histogram: 1 0 0 0 0 0 0 0 0 0
Neighs:         374831 ave      374831 max      374831 min
Histogram: 1 0 0 0 0 0 0 0 0 0

Total # of neighbors = 374831
Ave neighs/atom = 124.94367
Ave special neighs/atom = 4
Neighbor list builds = 104
Dangerous builds = 0
unfix 15d
unfix 15c
unfix 15b
unfix 15a

print "immed_press = ${immed_press}"
immed_press = -180.465860334448
print "immed_modulus = ${immed_modulus}"
immed_modulus = 19644.6841503297
print "factor = ${factor}"
factor = 1
if "${defm_id} == 99 || ${factor} == 1" then "jump SELF defm_break"
jump SELF defm_break
variable modulus equal ${immed_modulus}
variable modulus equal 19644.6841503297
variable press equal ${immed_press}
variable press equal -180.465860334448
shell cd ..
variable vol delete
variable amp delete
variable immed_press delete
variable immed_modulus delete
variable factor delete
variable defm_id delete

dump_modify 1 every 1000

fix 38a all press/berendsen iso ${press} 1 1000 modulus ${modulus}
fix 38a all press/berendsen iso -180.465860334448 1 1000 modulus ${modulus}
fix 38a all press/berendsen iso -180.465860334448 1 1000 modulus 19644.6841503297
fix 38b all temp/berendsen 300 300 100
fix 38c all nve
run 100000
Generated 1 of 1 mixed pair_coeff terms from geometric mixing rule
Per MPI rank memory allocation (min/avg/max) = 10.59 | 10.59 | 10.59 Mbytes
   Step          Temp          E_pair         E_mol          TotEng         Press          Volume    
     82027   301.11406     -3578.5361      1944.8786      1058.1364      1344.2009      108431.69    
     83000   301.11218     -3591.0488      1956.3874      1057.1157     -124.61601      108483.14    
     84000   299.74422     -3560.3636      1951.345       1070.5297      7.0891302      108397.46    
     85000   300.6863      -3541.8472      1941.8085      1087.9312     -224.87529      108757.02    
     86000   303.87506     -3552.6531      1929.4753      1093.2979     -223.9988       108728.46    
     87000   298.10714     -3538.9829      1971.1906      1097.1214     -120.26503      109038.22    
     88000   299.37514     -3543.7171      1947.2356      1079.7674     -197.83531      109311.73    
     89000   303.36789     -3536.5653      1930.2343      1105.6109     -151.68848      109676.59    
     90000   302.17938     -3524.024       1941.467       1118.7604     -57.829215      109977.05    
     91000   297.62509     -3548.9413      2013.3268      1124.9899     -67.123968      109814.49    
     92000   303.15495     -3558.4252      1945.0622      1096.6753     -263.5856       109527.19    
     93000   295.09153     -3515.2161      2010.3213      1133.061      -155.8407       109471.53    
     94000   304.47322     -3524.2419      1923.9988      1121.5799     -230.36573      109574.09    
     95000   300.74593     -3546.503       1947.39        1089.39       -311.99005      109483.31    
     96000   296.65945     -3524.9138      1975.5089      1102.5672     -232.4025       109697.07    
     97000   295.642       -3506.9387      1977.4247      1113.3627     -231.1671       109775.23    
     98000   298.46289     -3509.1367      1957.1131      1116.0703      7.4444073      109798.43    
     99000   298.20147     -3524.0695      1952.0211      1093.7085     -78.620425      109866.74    
    100000   294.67797     -3513.7407      1959.4951      1080.0133     -357.98032      109698.56    
    101000   300.80162     -3499.9817      1936.1099      1125.129      -151.95475      109985.14    
    102000   298.11245     -3496.1602      1945.5772      1114.3782     -62.730335      110053.57    
    103000   302.09786     -3524.8824      1942.2225      1117.9286     -96.441632      110118.87    
    104000   300.82866     -3498.9081      1923.3566      1113.691      -161.55189      110021.51    
    105000   301.73845     -3494.6461      1912.4662      1115.1957     -148.9541       110047.18    
    106000   294.59373     -3504.9136      1999.8165      1128.4086     -225.00208      110192.13    
    107000   303.37132     -3515.982       1939.3327      1135.3232     -392.64714      110135.88    
    108000   298.63397     -3515.3137      1960.1323      1114.4418     -286.88679      110135.67    
    109000   300.48469     -3523.72        1970.1023      1132.55       -207.45319      110323.96    
    110000   308.40098     -3489.9741      1869.8888      1136.8496     -57.92394       110325.2     
    111000   303.2251      -3491.3833      1890.5712      1109.8533      180.25831      109949.44    
    112000   301.1127      -3490.5377      1906.2297      1107.4737     -53.163673      109766.53    
    113000   297.62021     -3513.5197      1969.64        1116.681      -83.589137      109602.4     
    114000   302.77323     -3527.7989      1924.0706      1102.8977     -92.259244      109715.54    
    115000   307.92939     -3520.4995      1856.8235      1089.0431     -335.16415      109828.09    
    116000   299.26487     -3520.2107      1941.2364      1096.2888     -135.73008      109959.59    
    117000   304.93849     -3506.9124      1906.7942      1125.864      -67.456678      109924.3     
    118000   298.90104     -3501.8594      1938.168       1108.3192     -125.93735      109803.76    
    119000   299.71285     -3530.7843      1957.9988      1106.4823     -317.6588       109449.72    
    120000   299.98008     -3557.5578      1959.4884      1083.5874      73.737798      109193.38    
    121000   298.10099     -3551.2493      1936.1779      1049.7872     -262.26968      108896.99    
    122000   301.60942     -3586.4776      1958.0193      1067.7638     -271.32192      108751.84    
    123000   300.972       -3563.0791      1934.8493      1062.2942     -269.91454      108638.45    
    124000   302.62039     -3534.2672      1909.3149      1080.3074      93.498068      108649.66    
    125000   301.90146     -3534.7013      1914.5701      1078.7016     -1.2704762      108733.12    
    126000   296.11909     -3527.7636      1948.3255      1067.7035     -365.3217       108778.16    
    127000   301.37975     -3495.8493      1899.2621      1097.5819     -77.072163      108883.65    
    128000   297.20446     -3510.7858      1939.2514      1085.3098     -76.09451       108973.61    
    129000   302.2496      -3530.3877      1927.9838      1099.5411      37.671363      109147.82    
    130000   300.05421     -3533.5409      1935.5658      1084.3443     -71.889022      109322.81    
    131000   296.7106      -3523.3722      1971.3884      1100.4456     -136.61129      109405.2     
    132000   300.62375     -3543.6334      1939.8071      1083.5844     -129.11734      109202.97    
    133000   296.29571     -3523.05        1964.9333      1090.6039     -237.5303       109203.48    
    134000   307.29321     -3573.5046      1882.3184      1055.8459     -127.50102      109093.26    
    135000   299.72529     -3521.5526      1912.2774      1070.1039     -63.423216      108951.1     
    136000   302.95276     -3533.487       1906.0022      1080.7461      196.33379      108926.82    
    137000   301.87884     -3537.7471      1917.155       1078.0385      116.62115      108670.88    
    138000   293.59615     -3537.8356      1995.0925      1081.8448      217.1205       108751.98    
    139000   299.15356     -3512.1528      1959.3459      1121.4612      68.313258      108827.61    
    140000   301.72118     -3527.1539      1930.5908      1100.6582      48.363474      108752.77    
    141000   300.54758     -3526.5294      1941.7584      1101.9589     -93.507754      108905.08    
    142000   298.90888     -3520.5185      1966.5504      1118.1126     -233.50295      108650.93    
    143000   300.80835     -3536.5137      1935.7473      1088.2946     -301.35666      108668.43    
    144000   298.65369     -3522.5728      1940.2522      1087.479       2.770358       108810.55    
    145000   299.1418      -3508.0724      1918.1406      1084.2312      137.71547      109081.46    
    146000   302.36586     -3498.675       1893.5198      1097.8291      171.87486      109291.95    
    147000   302.81828     -3532.6039      1897.4505      1071.8753     -39.386991      109070.26    
    148000   297.58803     -3490.8031      1931.3286      1100.7987      236.50769      109171.2     
    149000   294.61576     -3488.1059      1936.7859      1082.3826     -133.58477      109219.78    
    150000   300.09034     -3545.1408      1951.5024      1089.004      -386.91193      108835.8     
    151000   303.584       -3531.6398      1893.9792      1076.2132     -159.58139      108765.66    
    152000   300.28441     -3542.7641      1909.1332      1050.7465     -193.54815      108865.39    
    153000   299.83697     -3546.9081      1934.5795      1068.0488     -100.34698      108604.09    
    154000   297.50235     -3551.0231      1962.7644      1071.2485      229.74822      108436.02    
    155000   301.76074     -3549.6359      1933.2343      1081.1732     -243.80047      108631.59    
    156000   297.82441     -3524.3439      1944.2656      1082.3079     -32.551029      108802.77    
    157000   301.3498      -3535.0006      1912.2441      1071.1448     -331.90936      108716.02    
    158000   298.28852     -3496.9381      1927.6689      1097.2659      152.31042      108683.89    
    159000   301.08913     -3520.7125      1932.0469      1102.9054     -83.611904      108568.37    
    160000   298.6788      -3550.6748      1939.6385      1058.9877     -254.59276      108501.21    
    161000   298.4892      -3535.7726      1909.335       1041.8915      158.45736      108443.88    
    162000   295.33514     -3549.8557      1966.0821      1056.3599     -62.755419      108353.1     
    163000   297.72654     -3517.6922      1921.464       1065.2832      13.068041      108378.46    
    164000   298.51361     -3546.2928      1936.667       1058.9215      176.85134      108503.14    
    165000   304.41825     -3552.5786      1896.9825      1065.7354      4.6742093      108496.52    
    166000   304.29027     -3561.2873      1894.074       1052.9742     -18.262164      108213.86    
    167000   302.41068     -3547.7531      1918.6975      1074.3294     -234.72614      107978.55    
    168000   294.82039     -3534.655       1956.6329      1057.5098      74.61303       108067.05    
    169000   299.98631     -3526.4072      1907.4478      1062.753       156.50303      107912.85    
    170000   297.46809     -3571.4257      1979.8568      1067.6321     -70.034838      107902.48    
    171000   296.03658     -3568.6417      1977.0902      1054.8525      91.367294      107708.22    
    172000   300.03087     -3560.3749      1945.2532      1066.989      -114.34751      107880.02    
    173000   296.76859     -3550.148       1963.3116      1066.1113      119.67202      107870.76    
    174000   299.1284      -3541.5606      1961.8885      1094.3711      248.92342      108024.84    
    175000   299.66705     -3564.8873      1932.1934      1046.1645     -32.366395      107934.26    
    176000   296.4531      -3537.2308      1957.3939      1070.2905      191.55078      107764.89    
    177000   299.09384     -3559.694       1935.4528      1049.493       163.95253      107805.16    
    178000   302.1266      -3564.5439      1919.1612      1055.4628      249.1457       107889.89    
    179000   301.68153     -3542.2436      1891.8482      1046.4713      220.37533      108118.36    
    180000   301.06671     -3567.0856      1907.6115      1031.8966     -115.11362      108358.36    
    181000   299.68897     -3555.9749      1916.9029      1039.9823     -1.5581682      108157.41    
    182000   303.27689     -3551.5676      1895.9306      1055.4914     -86.617113      108140.68    
    182027   296.8855      -3530.5623      1930.0595      1053.4902     -177.20116      108142.99    
Loop time of 475.181 on 1 procs for 100000 steps with 3000 atoms

Performance: 18.183 ns/day, 1.320 hours/ns, 210.446 timesteps/s, 631.339 katom-step/s
97.6% CPU use with 1 MPI tasks x no OpenMP threads

MPI task timing breakdown:
Section |  min time  |  avg time  |  max time  |%varavg| %total
---------------------------------------------------------------
Pair    | 409.02     | 409.02     | 409.02     |   0.0 | 86.08
Bond    | 39.042     | 39.042     | 39.042     |   0.0 |  8.22
Neigh   | 16.106     | 16.106     | 16.106     |   0.0 |  3.39
Comm    | 3.6093     | 3.6093     | 3.6093     |   0.0 |  0.76
Output  | 0.32217    | 0.32217    | 0.32217    |   0.0 |  0.07
Modify  | 5.6178     | 5.6178     | 5.6178     |   0.0 |  1.18
Other   |            | 1.466      |            |       |  0.31

Nlocal:           3000 ave        3000 max        3000 min
Histogram: 1 0 0 0 0 0 0 0 0 0
Nghost:           7983 ave        7983 max        7983 min
Histogram: 1 0 0 0 0 0 0 0 0 0
Neighs:         375662 ave      375662 max      375662 min
Histogram: 1 0 0 0 0 0 0 0 0 0

Total # of neighbors = 375662
Ave neighs/atom = 125.22067
Ave special neighs/atom = 4
Neighbor list builds = 1355
Dangerous builds = 0
unfix 38c
unfix 38b
unfix 38a


variable xl equal "xhi - xlo"
variable yl equal "yhi - ylo"
variable zl equal "zhi - zlo"
fix 39a all ave/time 1 1000 1000 v_xl v_yl v_zl file xyzl.data
fix 39b all press/berendsen iso 1.0 1 1000 modulus ${modulus}
fix 39b all press/berendsen iso 1.0 1 1000 modulus 19644.6841503297
fix 39c all temp/berendsen 300 300 100
fix 39d all nve
run 1000000
Generated 1 of 1 mixed pair_coeff terms from geometric mixing rule
Per MPI rank memory allocation (min/avg/max) = 10.59 | 10.59 | 10.59 Mbytes
   Step          Temp          E_pair         E_mol          TotEng         Press          Volume    
    182027   296.8855      -3530.5656      1930.0443      1053.4716     -175.10673      108142.99    
    183000   302.8465      -3543.4695      1881.0224      1044.8338     -90.145116      108144.78    
    184000   301.62317     -3551.4326      1900.2521      1045.1646      52.973778      108318.04    
    185000   297.27177     -3561.4118      1957.8722      1053.9063     -6.7572906      108165.44    
    186000   301.25795     -3567.8374      1914.3992      1039.6419      143.46083      108035.47    
    187000   302.05879     -3605.7184      1940.0066      1034.5275     -317.01855      107847.04    
    188000   299.42253     -3574.8256      1933.6545      1035.5014     -277.89759      107800.41    
    189000   299.50586     -3585.9755      1911.818       1003.2599     -182.0486       107775.08    
    190000   300.73436     -3576.6414      1917.0418      1028.8        -159.6671       107974.53    
    191000   301.47103     -3584.9017      1900.5063      1010.5896      95.849957      107903.45    
    192000   301.1848      -3574.0341      1893.2187      1011.6109      216.52678      107962.57    
    193000   298.22064     -3563.4767      1938.6275      1041.0792     -77.389706      108154.99    
    194000   302.40295     -3576.5498      1909.1863      1035.9523     -73.224541      108294.17    
    195000   301.92042     -3550.0274      1861.8924      1010.8673      154.16569      108419.22    
    196000   300.51115     -3556.7574      1885.9563      1015.603       72.085857      108510.59    
    197000   297.95759     -3510.6595      1913.5553      1066.4726      51.245174      109004.81    
    198000   304.17252     -3541.718       1861.4094      1038.8261      89.640405      109182.06    
    199000   298.97427     -3547.0892      1921.2627      1046.8389     -38.725622      109034.93    
    200000   301.40844     -3573.3496      1913.256       1034.3318      83.519426      108681.62    
    201000   300.27083     -3551.3103      1897.1539      1030.0994     -91.477607      108600       
    202000   299.42016     -3550.8372      1888.4899      1014.3041     -62.762432      108488.94    
    203000   301.56927     -3560.3872      1905.5435      1041.0195     -86.001899      108697.34    
    204000   302.69599     -3565.146       1885.0551      1025.8446     -235.74286      108415.87    
    205000   301.90966     -3574.704       1903.7076      1027.9097     -60.896818      108249.4     
    206000   298.64527     -3536.1479      1951.0678      1084.6441      82.924594      108431.44    
    207000   302.85982     -3570.3095      1896.1122      1033.2028      33.73353       108573.99    
    208000   296.77134     -3592.0953      1953.7439      1014.621      -206.10262      108413.46    
    209000   301.74327     -3557.1702      1906.2971      1046.5456     -24.172459      108546.85    
    210000   299.19991     -3529.2909      1873.024       1018.4154      92.254993      108629.55    
    211000   299.53407     -3553.2687      1916.9123      1041.3132      150.14708      108473.32    
    212000   297.27828     -3546.0048      1926.8793      1038.3786     -162.88522      108438.63    
    213000   303.49836     -3567.1007      1898.6691      1044.6767     -276.25219      108372.38    
    214000   298.74281     -3539.4754      1883.1541      1014.2749      70.773467      108292.14    
    215000   298.17162     -3565.1831      1933.4772      1033.7842     -150.93094      108177.41    
    216000   300.38451     -3513.9241      1912.6564      1084.0044      39.412606      108272.44    
    217000   304.51247     -3548.4765      1884.3116      1058.0089      10.927387      108231.76    
    218000   300.60755     -3542.7529      1905.7145      1050.2276     -2.3676863      108379.91    
    219000   303.14664     -3538.6614      1891.4231      1062.7257     -159.39463      108463.74    
    220000   302.98002     -3526.8414      1897.8217      1079.4549     -6.4556313      108543.4     
    221000   298.87092     -3516.2351      1926.2706      1081.7769     -16.588306      108640.08    
    222000   301.38637     -3547.7104      1913.9927      1060.5105      20.686678      108726.35    
    223000   295.68343     -3515.5779      1916.1164      1043.7855     -100.6949       108757.23    
    224000   297.38156     -3499.2612      1944.9834      1104.1496      182.3359       109062.74    
    225000   298.64398     -3515.9486      1933.6549      1087.4191      22.295227      108982.29    
    226000   303.78772     -3523.7644      1881.819       1073.7496      41.729413      108729.65    
    227000   299.57559     -3516.7533      1928.9371      1090.2246     -109.94567      108642.42    
    228000   299.85327     -3521.1396      1918.1701      1077.5537     -83.09769       108495.1     
    229000   298.65549     -3550.5827      1947.6332      1066.8662     -123.57086      108356.78    
    230000   299.67821     -3532.7156      1895.9005      1042.1431     -163.09966      108336.8     
    231000   299.69462     -3531.5516      1933.4557      1081.009      -76.65629       108589.34    
    232000   299.24648     -3500.8709      1931.0157      1105.2435     -12.846738      108794.16    
    233000   298.69031     -3523.5772      1922.6969      1069.2466     -166.17922      108742.88    
    234000   301.39258     -3522.1575      1871.0435      1043.1697      13.913273      108575.98    
    235000   296.38369     -3482.3964      1919.1647      1086.2753     -65.340898      108859.54    
    236000   300.66073     -3497.3017      1926.1554      1116.5951     -43.120522      109218.16    
    237000   298.43434     -3512.5346      1933.941       1089.2451     -198.56475      109152.63    
    238000   304.34797     -3492.4596      1870.3159      1098.5596      161.82808      109411.2     
    239000   290.84337     -3487.9631      2010.6586      1122.6751      30.122623      109527.3     
    240000   297.25125     -3502.0237      1914.7575      1069.9963      160.4735       109380.41    
    241000   300.7686      -3519.6219      1895.8891      1064.9728     -132.74514      109276.63    
    242000   301.0146      -3498.6056      1894.7444      1087.0436      20.949814      109085.48    
    243000   298.49211     -3536.9129      1941.6668      1073.109      -124.76318      108829.63    
    244000   299.00823     -3537.9451      1930.5086      1065.5324     -55.900844      108557.43    
    245000   302.44044     -3571.6425      1913.6728      1045.6813     -92.480944      108401.41    
    246000   302.53457     -3565.7508      1909.7458      1048.4874     -3.4930508      108186.06    
    247000   298.89733     -3547.4942      1907.1776      1031.6609      4.9356279      108297.52    
    248000   298.4458      -3552.0453      1915.5891      1031.4848      80.069462      108271.97    
    249000   299.50709     -3552.9302      1933.1603      1057.6586      106.40276      108174.7     
    250000   299.30617     -3535.5418      1943.0518      1083.1423     -66.35693       108172.82    
    251000   303.53817     -3538.8355      1912.3128      1086.9414      60.217835      107960.63    
    252000   304.32801     -3549.7854      1901.9561      1072.6955     -195.43043      108120.43    
    253000   293.42984     -3558.4113      1984.7277      1049.4176      108.20679      108093.4     
    254000   296.5348      -3544.1533      1972.1233      1078.8279      86.916343      107985.84    
    255000   299.6931      -3542.1276      1928.7959      1065.7596      56.630397      107824.71    
    256000   302.45227     -3569.2881      1949.7575      1084.2261      62.132494      107925.01    
    257000   299.63564     -3534.0666      1907.9694      1052.4804      78.632861      108212.46    
    258000   299.49952     -3526.3927      1905.539       1056.5071      182.33657      108073.42    
    259000   300.45794     -3499.8817      1887.0599      1073.1067     -87.978868      108101.45    
    260000   304.69083     -3548.5004      1883.8762      1059.144       100.47319      108139.52    
    261000   302.879       -3531.914       1915.7546      1091.4121      181.62738      108215.57    
    262000   299.47569     -3529.7947      1942.6658      1090.0188      194.77318      108071.44    
    263000   297.01789     -3556.3116      1956.2625      1055.1274     -0.36009771     108105.55    
    264000   300.59275     -3534.2738      1912.088       1064.9479     -22.854522      108282.77    
    265000   298.4841      -3540.7439      1965.1064      1092.646       19.43238       108368.72    
    266000   302.58588     -3527.1841      1908.1888      1085.9558      49.767176      108363.61    
    267000   299.58195     -3522.3183      1945.6898      1101.4692     -110.21015      108308.64    
    268000   300.30829     -3532.6116      1947.2057      1099.1848      124.70374      108217.35    
    269000   299.45063     -3503.3593      1918.826       1092.3905      220.83197      108352.84    
    270000   301.01898     -3525.7207      1935.1525      1100.3757     -155.49844      108631.19    
    271000   301.05111     -3515.2142      1927.0563      1103.0733      94.034363      108632.39    
    272000   298.65141     -3485.7388      1920.5963      1104.6365      15.569015      108632.97    
    273000   296.8765      -3490.8153      1922.8163      1085.9134      216.75708      108675.79    
    274000   299.04289     -3496.0598      1916.8124      1094.0313      91.916238      108837.07    
[...]
    578000   299.01887     -3407.803       1890.5952      1155.8562      124.60814      111336.36    
    579000   303.08225     -3394.1649      1851.5825      1166.806      -32.540575      111398.47    
    580000   299.70835     -3412.8904      1915.1534      1181.4906     -140.0796       111191.42    
    581000   297.66211     -3417.0048      1913.5072      1157.4377      57.237586      110938.77    
    582000   300.48112     -3424.2657      1908.9972      1170.8672      188.0172       110766.48    
    583000   301.76382     -3443.8348      1888.6429      1142.4104     -95.647597      110432.9     
    584000   301.55016     -3445.3625      1880.9615      1131.2914     -141.25702      110475.11    
    585000   302.43557     -3449.2966      1879.3435      1133.6543     -294.70719      110690.47    
    586000   299.48313     -3414.4252      1899.6623      1162.4514     -55.158435      110499.56    
    587000   300.39942     -3418.9233      1904.5139      1170.9961      61.534861      110353.33    
    588000   302.78546     -3449.9828      1871.5036      1128.256       46.969729      110365.88    
    589000   300.60616     -3433.4754      1888.9686      1142.7467     -221.88665      110479.19    
    590000   301.99453     -3451.3418      1898.8294      1147.1524     -299.80324      110490.6     
    591000   299.07115     -3437.7898      1893.803       1129.5446     -294.33824      110238.57    
    592000   304.20831     -3481.517       1877.2403      1115.1782     -169.86706      110077.63    
    593000   297.58815     -3446.0485      1904.4828      1118.7085      239.88737      110247.92    
    594000   300.40126     -3457.0273      1870.3893      1098.7839     -133.49657      110473.06    
    595000   301.22248     -3460.1503      1884.6705      1117.2832     -108.62687      110372.71    
    596000   303.2128      -3463.0984      1873.6082      1121.0653     -42.660051      110482.96    
    597000   296.90612     -3433.4022      1912.0521      1132.827       52.047597      110416.54    
    598000   301.80244     -3443.4112      1854.9772      1109.5137     -34.00925       110286.3     
    599000   302.3363      -3454.0977      1886.1867      1134.8091      126.59714      110458.82    
    600000   299.86489     -3416.6788      1891.066       1155.0142      10.989154      110957.48    
    601000   303.10528     -3430.4037      1876.1987      1155.3892     -27.582997      110861.24    
    602000   295.46906     -3439.4047      1907.9164      1109.8425      22.243083      110804.97    
    603000   296.98095     -3424.8471      1918.6529      1148.652       10.87669       110618.05    
    604000   299.10905     -3411.776       1900.2648      1162.359      -48.447001      110713.85    
    605000   304.28996     -3433.4403      1864.9155      1151.6599      60.337613      110671.94    
    606000   301.19716     -3423.8709      1894.9905      1163.6564      287.42624      110715.68    
    607000   297.30647     -3443.8192      1900.8212      1114.7581     -316.02224      110315.51    
    608000   300.13296     -3436.9339      1894.3215      1140.411      -84.650682      110322.28    
    609000   297.33489     -3454.1596      1917.8436      1121.6941      74.024172      110170.86    
    610000   297.13315     -3452.1658      1934.6297      1138.6706     -44.597668      110164.51    
    611000   296.17393     -3430.6382      1899.2245      1116.2181      35.499203      110046.04    
    612000   300.28072     -3452.6968      1889.3113      1120.9588     -193.49494      110079.74    
    613000   294.708       -3426.3776      1949.3374      1157.487       132.19768      110363.63    
    614000   298.83257     -3430.4891      1914.4205      1155.33       -110.40892      110892.08    
    615000   302.07696     -3403.3465      1870.2555      1167.3107     -158.49641      110940.41    
    616000   301.55132     -3410.0795      1845.3516      1130.9749      111.48063      110660.25    
    617000   302.49849     -3429.5802      1881.0663      1155.6561      159.80317      110790.5     
    618000   299.37527     -3443.6868      1888.9756      1121.5389     -126.44471      110593.4     
    619000   297.63275     -3437.5677      1913.5822      1136.6874      239.65781      110658.31    
    620000   294.1104      -3420.8582      1929.3814      1137.7082     -218.57757      110803.51    
    621000   299.54672     -3415.2396      1882.8653      1145.4084      206.01986      111046.35    
    622000   299.29171     -3422.725       1916.8059      1169.5839     -47.874908      111315.67    
    623000   299.71943     -3425.6573      1910.3964      1164.0657      134.39013      111033.2     
    624000   299.62426     -3424.6382      1889.9451      1143.7828     -9.8326005      110762.96    
    625000   297.55583     -3400.5782      1890.0413      1149.4484      21.80752       110881.72    
    626000   298.60959     -3379.8207      1891.4046      1180.9892      79.032574      110966.5     
    627000   300.44053     -3355.2544      1869.3904      1199.9089      98.304908      111125.53    
    628000   300.17728     -3387.8742      1897.4077      1192.9531     -114.0194       111025.11    
    629000   300.56361     -3392.4655      1900.6838      1195.0915      9.4387491      111196.72    
    630000   301.93515     -3408.7911      1895.3231      1185.6661      141.46164      111205.41    
    631000   301.57585     -3419.2097      1883.7444      1160.4568      121.79445      111078.2     
    632000   297.98291     -3432.5564      1930.2481      1161.4949     -53.662986      111277.67    
    633000   302.59113     -3450.274       1903.1297      1157.8538     -138.20476      111030.8     
    634000   300.18215     -3436.3476      1900.1975      1147.313      -122.45135      110842.34    
    635000   296.17502     -3402.4486      1887.8047      1132.9977      88.033586      110732.92    
    636000   300.43887     -3419.9336      1880.2837      1146.1081      86.762472      110839.45    
    637000   301.39758     -3420.5988      1879.7709      1153.5005      18.333846      111104.83    
    638000   297.19411     -3413.0392      1918.8999      1162.6124      134.70791      111055.37    
    639000   299.03394     -3448.0375      1910.3088      1135.4701     -11.655895      110622.34    
    640000   300.36375     -3410.8908      1877.3995      1151.5952      182.30037      110771.25    
    641000   299.09989     -3443.7537      1910.6694      1140.704      -196.92497      110985.19    
    642000   296.85774     -3417.6477      1909.7021      1145.7991      180.04642      110829.43    
    643000   296.71763     -3450.1035      1935.2003      1137.5891     -200.42098      110735.84    
    644000   303.75774     -3441.9686      1854.3506      1127.8089     -145.42154      110738.88    
    645000   300.03391     -3429.0994      1880.0138      1133.0524     -21.656424      110491.76    
    646000   299.65162     -3427.906       1891.4556      1142.27       -17.785791      110349.1     
    647000   298.0948      -3413.9934      1896.4678      1147.2778     -38.590992      110554.22    
    648000   298.98011     -3403.347       1885.845       1155.2155      117.57372      110923.36    
    649000   303.10265     -3437.6507      1882.1766      1154.0966     -25.455289      111035.59    
    650000   304.20399     -3442.808       1857.5626      1134.1708      139.20583      110869.86    
    651000   299.19484     -3407.8074      1863.521       1130.3506      179.98325      110914.58    
    652000   300.30921     -3404.6738      1869.3032      1149.2283     -17.994952      111085.86    
    653000   303.89873     -3413.1203      1846.7586      1150.3257      63.306765      110942.77    
    654000   301.26081     -3432.9374      1851.8609      1112.0293     -90.060712      110745.27    
    655000   295.28733     -3409.4535      1921.247       1151.4997      134.06283      110759.97    
    656000   302.43651     -3412.0916      1888.6789      1180.2031      38.330154      110775.56    
    657000   299.05125     -3440.8185      1889.1325      1121.6674      188.3914       110338.81    
    658000   300.06296     -3443.9574      1913.1929      1151.6332      9.2773137      110463.1     
    659000   300.61028     -3426.8787      1894.4991      1154.9106     -21.035333      110430.93    
    660000   302.52096     -3446.9363      1852.7019      1110.1365     -170.74613      110367.79    
    661000   302.36259     -3446.3772      1870.1843      1126.7622     -24.132545      110398.83    
    662000   301.50885     -3430.955       1870.0984      1134.4664     -3.2138932      110737.16    
    663000   297.85558     -3414.87        1895.7988      1143.5937      343.84837      110892.87    
    664000   302.15714     -3413.1947      1837.7254      1125.6491      46.692563      110705.25    
    665000   301.47072     -3437.5631      1868.3384      1125.7575      108.19679      110670.69    
    666000   300.95722     -3409.3923      1859.5611      1140.5606      340.05571      110806.56    
    667000   302.76942     -3444.8663      1851.4307      1113.1563      118.02771      110502.54    
    668000   304.82062     -3445.0907      1850.1607      1129.9985     -42.241683      110563.72    
    669000   298.82403     -3427.8341      1879.1112      1122.5994      166.14674      110508.17    
    670000   302.06989     -3452.6189      1855.6656      1103.3851     -135.79522      110667.55    
    671000   295.15553     -3420.5378      1905.7552      1123.7453      97.037287      110489.07    
    672000   300.38096     -3422.5962      1904.057       1166.7013      48.381569      110574.66    
    673000   301.44697     -3426.4127      1858.2835      1126.6407      64.541766      110275.21    
    674000   300.7025      -3405.3257      1868.6475      1151.4365      178.28967      110530.8     
    675000   300.41602     -3422.6872      1888.1573      1151.024      -64.988641      110757.91    
    676000   299.07455     -3426.2942      1928.6277      1175.8953      7.2554279      110724.17    
    677000   301.23179     -3409.6468      1849.0139      1132.2135      179.37339      110781       
    678000   301.88989     -3408.8687      1853.4401      1143.3007      264.40584      110643.74    
    679000   304.78104     -3405.2784      1833.3586      1152.6549      190.08908      110806.27    
    680000   298.51057     -3423.0069      1900.1535      1145.6667     -74.554763      110671.74    
    681000   301.70883     -3434.3649      1883.0782      1145.824      -17.722296      110591.57    
    682000   297.45456     -3432.4958      1902.3364      1128.9206      119.21197      110530.76    
    683000   302.20916     -3449.0528      1868.93        1121.4607     -16.004164      110499.55    
    684000   298.50466     -3431.1265      1905.2658      1142.6066      83.676217      110556.83    
    685000   299.05644     -3434.4733      1905.425       1144.3516     -28.885257      110527.14    
    686000   301.3297      -3430.7069      1884.0446      1147.0593      153.95997      110780.81    
    687000   299.45904     -3407.6887      1903.4166      1172.7269      74.109482      110761.05    
    688000   302.78276     -3445.8201      1870.0966      1130.9876      143.47964      110568.8     
    689000   298.24979     -3430.9598      1919.4335      1154.6626     -135.85043      110712.75    
    690000   299.03018     -3423.8395      1900.0568      1149.3825      111.2774       110704.7     
    691000   302.37854     -3442.598       1869.693       1130.1926     -66.588491      110616.84    
    692000   299.1071      -3416.5327      1898.1086      1155.4286     -91.959282      110433.56    
    693000   301.85157     -3421.2994      1860.2294      1137.3168      231.40532      110516.03    
    694000   298.01087     -3440.8815      1925.1842      1148.3558     -37.573199      110533.4     
    695000   303.3449      -3443.6607      1843.4571      1111.5328     -77.526794      110589.42    
    696000   300.67672     -3437.6319      1889.8309      1140.0832     -71.673529      110716.1     
    697000   298.63144     -3421.9009      1905.8936      1153.5933      89.695964      110850.31    
    698000   298.03565     -3440.3542      1934.2056      1158.1259     -91.334699      110703.54    
    699000   300.97754     -3445.5763      1896.6888      1141.6859      56.386602      110408.34    
    700000   299.04721     -3433.7569      1896.2617      1135.8221      81.375749      110524.97    
    701000   298.76651     -3407.471       1891.6469      1154.984      -54.537537      110799.36    
    702000   298.75791     -3407.7419      1891.6946      1154.684       228.70865      110885.35    
    703000   295.41967     -3384.9438      1918.4385      1174.3839      69.778791      111073.64    
    704000   299.37461     -3396.4989      1915.6175      1195.3627      24.420864      111416.4     
    705000   301.24334     -3402.3711      1902.8502      1193.4287     -2.5637141      111455.4     
    706000   294.81371     -3386.9905      1940.4299      1188.9117     -286.66729      111022.75    
    707000   299.18563     -3416.7974      1914.0254      1171.7828     -225.76068      110803.23    
    708000   299.1874      -3407.5036      1903.6021      1170.6691      193.93382      110810.81    
    709000   294.68554     -3436.1901      1948.3464      1146.4828      108.77914      110815.99    
    710000   302.42675     -3420.8448      1879.6517      1162.3354      176.20165      110916.96    
    711000   298.67311     -3406.7518      1918.6046      1181.8259     -5.9538362      111006.34    
    712000   302.29162     -3373.8954      1842.5932      1171.0184      320.66487      110958.1     
    713000   305.28994     -3410.1982      1864.302       1183.2277      148.48784      111051.35    
    714000   297.44541     -3381.925       1894.3572      1171.4304      22.832459      111206.26    
    715000   299.78554     -3376.47        1852.3237      1155.7713     -20.042507      111160.92    
    716000   297.87058     -3367.4839      1876.1393      1171.4543      26.10326       111279.51    
    717000   298.71683     -3360.3512      1862.1832      1172.196       265.03503      111494.02    
    718000   300.06647     -3401.3141      1878.4409      1159.5558     -165.01733      111620.93    
    719000   297.52868     -3376.4064      1905.4396      1188.7758     -3.4895584      111395.97    
    720000   304.03489     -3424.1819      1891.1792      1184.9018     -321.15778      111259.37    
    721000   298.00907     -3416.9818      1924.9587      1172.0139     -176.85169      111032.74    
    722000   298.96386     -3412.8316      1910.7187      1170.4594     -42.190814      110736.84    
    723000   301.52432     -3387.3576      1887.036       1195.1398      68.877766      110712.93    
    724000   300.15314     -3427.9835      1894.8128      1150.0331     -248.37026      110807.65    
    725000   299.16065     -3421.029       1881.5736      1134.8761     -23.536578      110703.99    
    726000   299.14333     -3445.6712      1912.4992      1141.0046     -58.598188      110379.42    
    727000   299.29222     -3454.5158      1925.1835      1146.1753     -39.638335      110346.29    
    728000   300.32027     -3442.1774      1895.0407      1137.5611     -356.91848      110331.52    
    729000   296.6978      -3408.956       1918.1953      1161.5544      454.69028      110430.91    
    730000   296.05077     -3413.5997      1936.8089      1169.7401      39.527081      110465.42    
    731000   299.41003     -3440.3625      1898.9551      1135.1534     -116.64786      110239.97    
    732000   304.38102     -3391.4582      1832.3928      1161.9333      215.20614      110589.93    
    733000   297.91171     -3395.5827      1892.1201      1159.704       22.143403      111060.89    
    734000   298.08181     -3402.9495      1913.8827      1175.6205     -136.77682      111172.9     
    735000   301.18275     -3402.3655      1864.6178      1154.6602     -82.401399      111137.36    
    736000   301.31153     -3423.3792      1886.7838      1156.9638     -292.42557      111186.1     
    737000   299.0577      -3415.1232      1899.9623      1158.2502     -15.696904      110889.8     
    738000   306.21315     -3411.327       1829.7819      1155.8318     -30.209635      110740.55    
    739000   298.18415     -3432.9957      1888.0069      1120.6133     -189.65372      110742.43    
    740000   298.7319      -3413.5602      1875.8778      1132.8163      98.917468      110572.64    
    741000   299.28095     -3441.2432      1882.7182      1116.8819     -105.31974      110572.58    
    742000   300.97605     -3413.4455      1842.0507      1119.1653      107.73939      110913.45    
    743000   302.71162     -3440.4713      1869.0284      1134.6323     -359.43488      111054.98    
    744000   301.82656     -3451.3555      1870.8495      1117.6573     -174.4112       110803.7     
    745000   297.73985     -3398.148       1902.6615      1166.1439      128.59533      110753.56    
    746000   303.35757     -3421.2654      1871.3617      1161.9459      141.74872      110802.09    
    747000   300.07541     -3435.8842      1884.8733      1131.4981      171.17753      110267.07    
    748000   300.67708     -3450.2262      1904.7424      1142.4037      21.013012      110226.39    
    749000   298.82302     -3405.8313      1893.3203      1158.8023      135.28277      110719.69    
    750000   299.20079     -3424.1778      1899.3481      1149.8606     -25.486873      110746.88    
    751000   299.38871     -3417.7248      1892.6215      1151.2669     -161.66797      110728.63    
    752000   301.16318     -3428.5783      1870.5266      1134.1813     -19.233299      110508.15    
    753000   297.8042      -3446.3844      1905.7183      1121.5394      167.34189      110327.32    
    754000   304.5263      -3378.6733      1822.8578      1166.482       251.5534       110317.83    
    755000   301.839       -3435.8713      1874.4249      1136.8281      84.107563      110766.76    
    756000   294.67814     -3410.9805      1926.8813      1150.1611      24.978748      110909.47    
    757000   301.17039     -3416.2615      1851.0615      1127.0975     -13.695928      110628.57    
    758000   300.88762     -3414.1678      1889.3268      1164.9286      229.28595      110829.2     
    759000   301.86849     -3449.0452      1882.7762      1132.2691     -134.48641      110549.76    
    760000   299.96945     -3447.2849      1894.9479      1129.2247     -91.530152      110559.5     
    761000   301.13116     -3441.7807      1853.4         1103.5661      26.511561      110361.14    
    762000   303.1131      -3431.3137      1861.728       1140.0785     -167.44078      110505.85    
    763000   301.63219     -3410.3885      1843.3171      1129.3543      400.21216      110683.24    
    764000   302.12719     -3385.0169      1849.048       1164.8819      68.011414      111195       
    765000   296.69971     -3382.0847      1873.0167      1143.264      -28.84995       111259.31    
    766000   297.54294     -3426.0198      1922.6322      1156.4824     -93.881347      111276.91    
    767000   295.38851     -3366.7226      1891.8392      1165.7272      274.14705      111381.56    
    768000   299.58941     -3386.1055      1891.0378      1183.0966      25.000764      111453.99    
    769000   300.62384     -3424.8537      1884.0469      1146.6048     -286.22173      111204.52    
    770000   300.38959     -3420.6955      1869.3548      1133.9768     -32.618741      111070.85    
    771000   300.50113     -3419.0597      1852.4266      1119.6815     -6.3757201      110915.06    
    772000   300.67407     -3396.2861      1863.322       1154.8965      41.943317      111029.66    
    773000   300.71107     -3396.0591      1863.6037      1155.7359      248.21829      111257.98    
