LAMMPS (7 Feb 2024 - Development - patch_7Feb2024-18-gc6a8f1fe58)
units real
atom_style full
bond_style harmonic
angle_style harmonic
dihedral_style opls
improper_style cvff
pair_style lj/cut/coul/long 11.0 11.0
pair_modify mix geometric
special_bonds lj/coul 0 0 0.5
kspace_style pppm 0.0001
read_data polymer_builder.data
Reading data file ...
  orthogonal box = (-2.25 -1.85 -1.7) to (28.8 29.2 29.34)
  1 by 1 by 1 MPI processor grid
  reading atoms ...
  2400 atoms
  scanning bonds ...
  2 = max bonds/atom
  scanning angles ...
  1 = max angles/atom
  reading bonds ...
  1600 bonds
  reading angles ...
  800 angles
Finding 1-2 1-3 1-4 neighbors ...
  special bond factors lj:    0        0        0.5     
  special bond factors coul:  0        0        0.5     
     2 = max # of 1-2 neighbors
     1 = max # of 1-3 neighbors
     1 = max # of 1-4 neighbors
     2 = max # of special neighbors
  special bonds CPU = 0.001 seconds
  read_data CPU = 0.013 seconds

timestep 1
thermo_modify flush yes
thermo 1000
dump 1 all custom 1000 dump.custom.gz id xu yu zu
dump_modify 1 sort id
min_style fire
minimize 1.0e-6 1.0e-8 1000000 10000000
PPPM initialization ...
  using 12-bit tables for long-range coulomb (src/kspace.cpp:342)
  G vector (1/distance) = 0.24194891
  grid = 15 15 15
  stencil order = 5
  estimated absolute RMS force accuracy = 0.02262203
  estimated relative force accuracy = 6.8125571e-05
  using double precision FFTW3
  3d grid and FFT values/proc = 8000 3375
Generated 1 of 1 mixed pair_coeff terms from geometric mixing rule
Neighbor list info ...
  update: every = 1 steps, delay = 0 steps, check = yes
  max neighbors/atom: 2000, page size: 100000
  master list distance cutoff = 13
  ghost atom cutoff = 13
  binsize = 6.5, bins = 5 5 5
  1 neighbor lists, perpetual/occasional/extra = 1 0 0
  (1) pair lj/cut/coul/long, perpetual
      attributes: half, newton on
      pair build: half/bin/newton
      stencil: half/bin/3d
      bin: standard
  Parameters for fire:
    dmax  delaystep dtgrow dtshrink alpha0 alphashrink tmax tmin   integrator   halfstepback   abcfire  
     0.1     20      1.1     0.5     0.25     0.99      10  0.02 eulerimplicit      yes          no     
Per MPI rank memory allocation (min/avg/max) = 11.84 | 11.84 | 11.84 Mbytes
   Step          Temp          E_pair         E_mol          TotEng         Press     
         0   0              80842.164      318.3637       81160.528      772942.86    
      1000   0.25221892    -10090.808      678.0705      -9410.9334     -4307.5463    
      2000   1.7854782     -10423.32       704.11156     -9706.4404     -4213.1249    
      3000   0.16885804    -10577.609      717.40166     -9859.0001     -4104.3855    
      4000   0.0089692061  -10653.655      723.4668      -9930.1241     -4222.0024    
      4728   0.062658377   -10684.385      726.71734     -9957.2193     -4288.3028    
Loop time of 108.797 on 1 procs for 4728 steps with 2400 atoms

98.2% CPU use with 1 MPI tasks x no OpenMP threads

Minimization stats:
  Stopping criterion = energy tolerance
  Energy initial, next-to-last, final = 
      81160.5278232547  -9957.65860794879  -9957.66738987082
  Force two-norm initial, final = 82243.606 3.7155976
  Force max component initial, final = 17812.106 0.64909479
  Final line search alpha, max atom move = 0 0
  Iterations, force evaluations = 4728 4979

MPI task timing breakdown:
Section |  min time  |  avg time  |  max time  |%varavg| %total
---------------------------------------------------------------
Pair    | 102.19     | 102.19     | 102.19     |   0.0 | 93.93
Bond    | 0.39893    | 0.39893    | 0.39893    |   0.0 |  0.37
Kspace  | 5.2043     | 5.2043     | 5.2043     |   0.0 |  4.78
Neigh   | 0.42577    | 0.42577    | 0.42577    |   0.0 |  0.39
Comm    | 0.29435    | 0.29435    | 0.29435    |   0.0 |  0.27
Output  | 0.0071133  | 0.0071133  | 0.0071133  |   0.0 |  0.01
Modify  | 0          | 0          | 0          |   0.0 |  0.00
Other   |            | 0.2784     |            |       |  0.26

Nlocal:           2400 ave        2400 max        2400 min
Histogram: 1 0 0 0 0 0 0 0 0 0
Nghost:          12507 ave       12507 max       12507 min
Histogram: 1 0 0 0 0 0 0 0 0 0
Neighs:         886578 ave      886578 max      886578 min
Histogram: 1 0 0 0 0 0 0 0 0 0

Total # of neighbors = 886578
Ave neighs/atom = 369.4075
Ave special neighs/atom = 2
Neighbor list builds = 18
Dangerous builds = 0

fix rigid all shake 0.0001 10 10000 b 1 a 1
Finding SHAKE clusters ...
       0 = # of size 2 clusters
       0 = # of size 3 clusters
       0 = # of size 4 clusters
     800 = # of frozen angles
  find clusters CPU = 0.001 seconds
velocity all create 10 482748
fix 1a all temp/berendsen 10 10 100
fix 1b all nve
run 1000
PPPM initialization ...
  using 12-bit tables for long-range coulomb (src/kspace.cpp:342)
  G vector (1/distance) = 0.24194891
  grid = 15 15 15
  stencil order = 5
  estimated absolute RMS force accuracy = 0.02262203
  estimated relative force accuracy = 6.8125571e-05
  using double precision FFTW3
  3d grid and FFT values/proc = 8000 3375
Generated 1 of 1 mixed pair_coeff terms from geometric mixing rule
SHAKE stats (type/ave/delta/count) on step 4728
Bond:   1   1.02051   0.0335351       1600
Angle:  1   103.686   10.8487          800
Per MPI rank memory allocation (min/avg/max) = 14.14 | 14.14 | 14.14 Mbytes
   Step          Temp          E_pair         E_mol          TotEng         Press     
      4728   10            -10684.385      0             -10636.722     -3116.169     
      5000   13.143375     -9270.6208      0             -9207.9753     -3247.7521    
      5728   12.540308     -9379.2711      0             -9319.5        -3375.0259    
Loop time of 14.1326 on 1 procs for 1000 steps with 2400 atoms

Performance: 6.114 ns/day, 3.926 hours/ns, 70.758 timesteps/s, 169.820 katom-step/s
98.1% CPU use with 1 MPI tasks x no OpenMP threads

MPI task timing breakdown:
Section |  min time  |  avg time  |  max time  |%varavg| %total
---------------------------------------------------------------
Pair    | 12.629     | 12.629     | 12.629     |   0.0 | 89.36
Bond    | 0.0013419  | 0.0013419  | 0.0013419  |   0.0 |  0.01
Kspace  | 1.0366     | 1.0366     | 1.0366     |   0.0 |  7.33
Neigh   | 0.1912     | 0.1912     | 0.1912     |   0.0 |  1.35
Comm    | 0.059571   | 0.059571   | 0.059571   |   0.0 |  0.42
Output  | 0.001695   | 0.001695   | 0.001695   |   0.0 |  0.01
Modify  | 0.19644    | 0.19644    | 0.19644    |   0.0 |  1.39
Other   |            | 0.01646    |            |       |  0.12

Nlocal:           2400 ave        2400 max        2400 min
Histogram: 1 0 0 0 0 0 0 0 0 0
Nghost:          12508 ave       12508 max       12508 min
Histogram: 1 0 0 0 0 0 0 0 0 0
Neighs:         885735 ave      885735 max      885735 min
Histogram: 1 0 0 0 0 0 0 0 0 0

Total # of neighbors = 885735
Ave neighs/atom = 369.05625
Ave special neighs/atom = 2
Neighbor list builds = 8
Dangerous builds = 0
unfix 1b
unfix 1a

fix 2a all temp/berendsen 10 298.15 100
fix 2b all nve
run 10000
PPPM initialization ...
  using 12-bit tables for long-range coulomb (src/kspace.cpp:342)
  G vector (1/distance) = 0.24194891
  grid = 15 15 15
  stencil order = 5
  estimated absolute RMS force accuracy = 0.02262203
  estimated relative force accuracy = 6.8125571e-05
  using double precision FFTW3
  3d grid and FFT values/proc = 8000 3375
Generated 1 of 1 mixed pair_coeff terms from geometric mixing rule
SHAKE stats (type/ave/delta/count) on step 5728
Bond:   1   1         1.00652e-06     1600
Angle:  1   109.47    8.76916e-05      800
Per MPI rank memory allocation (min/avg/max) = 14.14 | 14.14 | 14.14 Mbytes
   Step          Temp          E_pair         E_mol          TotEng         Press     
      5728   12.540308     -9379.2711      0             -9319.5        -3374.6103    
      6000   15.710313     -9393.9813      0             -9319.101      -3262.7008    
      7000   41.898099     -9315.0068      0             -9115.3073     -3409.5489    
      8000   70.875242     -9220.3167      0             -8882.5029     -2596.6602    
      9000   100.15302     -9115.5543      0             -8638.1934     -2609.7853    
SHAKE stats (type/ave/delta/count) on step 10000
Bond:   1   1         9.99396e-07     1600
Angle:  1   109.47    8.63651e-05      800
     10000   129.82293     -9000.4778      0             -8381.7008     -2252.9959    
     11000   161.32897     -8878.0002      0             -8109.0555     -2009.7979    
     12000   183.02873     -8703.4321      0             -7831.0594     -1936.44      
     13000   209.28396     -8543.5942      0             -7546.0809     -1947.9967    
     14000   238.74711     -8301.8703      0             -7163.9263     -1908.2816    
     15000   259.87871     -8000.5145      0             -6761.8506     -1165.107     
     15728   281.63284     -7738.1737      0             -6395.8228     -1735.9135    
Loop time of 148.288 on 1 procs for 10000 steps with 2400 atoms

Performance: 5.827 ns/day, 4.119 hours/ns, 67.436 timesteps/s, 161.847 katom-step/s
98.0% CPU use with 1 MPI tasks x no OpenMP threads

MPI task timing breakdown:
Section |  min time  |  avg time  |  max time  |%varavg| %total
---------------------------------------------------------------
Pair    | 128.66     | 128.66     | 128.66     |   0.0 | 86.76
Bond    | 0.014071   | 0.014071   | 0.014071   |   0.0 |  0.01
Kspace  | 10.411     | 10.411     | 10.411     |   0.0 |  7.02
Neigh   | 6.3704     | 6.3704     | 6.3704     |   0.0 |  4.30
Comm    | 0.63717    | 0.63717    | 0.63717    |   0.0 |  0.43
Output  | 0.018284   | 0.018284   | 0.018284   |   0.0 |  0.01
Modify  | 2.006      | 2.006      | 2.006      |   0.0 |  1.35
Other   |            | 0.1702     |            |       |  0.11

Nlocal:           2400 ave        2400 max        2400 min
Histogram: 1 0 0 0 0 0 0 0 0 0
Nghost:          12456 ave       12456 max       12456 min
Histogram: 1 0 0 0 0 0 0 0 0 0
Neighs:         889151 ave      889151 max      889151 min
Histogram: 1 0 0 0 0 0 0 0 0 0

Total # of neighbors = 889151
Ave neighs/atom = 370.47958
Ave special neighs/atom = 2
Neighbor list builds = 262
Dangerous builds = 0
unfix 2b
unfix 2a

variable vol equal vol
fix 3a all ave/time 1 100 100 c_thermo_press v_vol file press_vol.data
variable amp equal "0.05*vol^(1/3)"
fix 3b all deform 1 x wiggle ${amp} 10000.0 y wiggle ${amp} 10000.0 z wiggle ${amp} 10000.0
fix 3b all deform 1 x wiggle 1.55233331543784 10000.0 y wiggle ${amp} 10000.0 z wiggle ${amp} 10000.0
fix 3b all deform 1 x wiggle 1.55233331543784 10000.0 y wiggle 1.55233331543784 10000.0 z wiggle ${amp} 10000.0
fix 3b all deform 1 x wiggle 1.55233331543784 10000.0 y wiggle 1.55233331543784 10000.0 z wiggle 1.55233331543784 10000.0
fix 3c all temp/berendsen 298.15 298.15 100
fix 3d all nve
run 100000
PPPM initialization ...
  using 12-bit tables for long-range coulomb (src/kspace.cpp:342)
  G vector (1/distance) = 0.24194891
  grid = 15 15 15
  stencil order = 5
  estimated absolute RMS force accuracy = 0.02262203
  estimated relative force accuracy = 6.8125571e-05
  using double precision FFTW3
  3d grid and FFT values/proc = 8000 3375
Generated 1 of 1 mixed pair_coeff terms from geometric mixing rule
SHAKE stats (type/ave/delta/count) on step 15728
Bond:   1   1         1.33907e-06     1600
Angle:  1   109.47    0.000123765      800
Per MPI rank memory allocation (min/avg/max) = 14.14 | 14.14 | 14.14 Mbytes
   Step          Temp          E_pair         E_mol          TotEng         Press          Volume    
     15728   281.63284     -7738.1737      0             -6395.8228     -1735.6645      29925.742    
     16000   296.4588      -7690.4618      0             -6277.4456     -1675.0336      30695.681    
     17000   297.66431     -7427.6918      0             -6008.9298     -1799.6187      33260.118    
     18000   300.90614     -7410.1081      0             -5975.8946     -1433.852       34592.116    
     19000   299.07876     -7484.7088      0             -6059.2051     -1189.7411      34075.034    
SHAKE stats (type/ave/delta/count) on step 20000
Bond:   1   0.999973  1.12564e-06     1600
Angle:  1   109.47    8.98644e-05      800
     20000   300.40091     -7648.6015      0             -6216.796      -406.18544      31952.26     
     21000   298.60404     -7754.6477      0             -6331.4067     -131.23009      29168.786    
     22000   299.43798     -7822.7754      0             -6395.5596     -148.93845      26822.012    
     23000   297.86534     -7833.3565      0             -6413.6364     -296.77349      25699.104    
     24000   294.87445     -7825.8643      0             -6420.3997     -1122.3464      26127.747    
     25000   292.85849     -7668.478       0             -6272.6221     -2151.6687      27986.773    
     26000   304.1631      -7521.5268      0             -6071.7896     -2833.8729      30695.681    
     27000   295.87023     -7334.1271      0             -5923.9162     -1671.6002      33260.118    
     28000   300.69257     -7329.3727      0             -5896.1772     -1353.6245      34592.116    
     29000   300.29964     -7439.6297      0             -6008.3069     -877.32765      34075.034    
SHAKE stats (type/ave/delta/count) on step 30000
Bond:   1   0.999973  1.13284e-06     1600
Angle:  1   109.47    8.78817e-05      800
     30000   295.6181      -7584.8465      0             -6175.8374     -686.96527      31952.26     
     31000   296.03389     -7699.0685      0             -6288.0777     -588.08667      29168.786    
     32000   296.80444     -7855.5803      0             -6440.9167     -49.239124      26822.012    
     33000   297.54369     -7867.1626      0             -6448.9756      293.08076      25699.104    
     34000   297.63428     -7835.5833      0             -6416.9645     -1398.783       26127.747    
     35000   289.57031     -7665.8967      0             -6285.7133     -1661.624       27986.773    
     36000   300.59611     -7523.947       0             -6091.2112     -1797.6026      30695.681    
     37000   302.02192     -7384.6892      0             -5945.1575     -1970.4648      33260.118    
     38000   292.04083     -7240.3155      0             -5848.3569     -1464.1466      34592.116    
     39000   304.41874     -7391.095       0             -5940.1393     -1357.2759      34075.034    
SHAKE stats (type/ave/delta/count) on step 40000
Bond:   1   0.999973  1.1227e-06      1600
Angle:  1   109.47    8.88688e-05      800
     40000   294.42518     -7545.551       0             -6142.2277     -462.07319      31952.26     
     41000   299.80532     -7712.1144      0             -6283.1477     -932.79225      29168.786    
     42000   293.87348     -7803.0756      0             -6402.382       550.41219      26822.012    
     43000   299.30014     -7815.8765      0             -6389.3177     -370.90706      25699.104    
     44000   290.37093     -7810.127       0             -6426.1276     -405.91392      26127.747    
     45000   302.95671     -7719.6936      0             -6275.7064     -1589.3061      27986.773    
     46000   299.35083     -7490.8114      0             -6064.0109     -1652.9792      30695.681    
     47000   300.39172     -7318.0651      0             -5886.3035     -2391.3722      33260.118    
     48000   296.1012      -7273.0038      0             -5861.6921     -2193.4864      34592.116    
     49000   301.7255      -7369.0628      0             -5930.9439     -485.70861      34075.034    
SHAKE stats (type/ave/delta/count) on step 50000
Bond:   1   0.999973  1.24553e-06     1600
Angle:  1   109.47    9.42095e-05      800
     50000   303.11835     -7550.2292      0             -6105.4715     -127.32078      31952.26     
     51000   297.02518     -7710.4361      0             -6294.7204     -204.85268      29168.786    
     52000   302.68075     -7850.3476      0             -6407.6757     -361.36013      26822.012    
     53000   305.3728      -7894.871       0             -6439.3679     -354.03813      25699.104    
     54000   306.29718     -7871.6285      0             -6411.7196     -173.26315      26127.747    
     55000   299.07257     -7696.4817      0             -6271.0075     -1446.1889      27986.773    
     56000   294.37127     -7509.1996      0             -6106.1333     -2270.2948      30695.681    
     57000   299.89189     -7329.0841      0             -5899.7048     -1899.2883      33260.118    
     58000   300.66027     -7353.1613      0             -5920.1197     -1270.031       34592.116    
     59000   297.91608     -7421.9698      0             -6002.0078     -1368.891       34075.034    
SHAKE stats (type/ave/delta/count) on step 60000
Bond:   1   0.999973  9.92249e-07     1600
Angle:  1   109.47    9.8911e-05       800
     60000   291.9793      -7524.0849      0             -6132.4195     -433.25302      31952.26     
     61000   303.07561     -7725.954       0             -6281.4001     -204.26385      29168.786    
     62000   298.3313      -7802.6566      0             -6380.7155     -604.55717      26822.012    
     63000   301.3124      -7896.5478      0             -6460.3979      441.77583      25699.104    
     64000   302.28236     -7862.1542      0             -6421.3812     -1027.8774      26127.747    
     65000   298.11235     -7684.9279      0             -6264.0305     -2274.2032      27986.773    
     66000   303.76301     -7532.4266      0             -6084.5963     -2109.0224      30695.681    
     67000   300.71046     -7369.1172      0             -5935.8363     -1794.5619      33260.118    
     68000   292.08661     -7296.4172      0             -5904.2404     -1183.8422      34592.116    
     69000   304.25899     -7452.2215      0             -6002.0273     -888.98456      34075.034    
SHAKE stats (type/ave/delta/count) on step 70000
Bond:   1   0.999973  1.11888e-06     1600
Angle:  1   109.47    8.81173e-05      800
     70000   300.38201     -7570.7818      0             -6139.0665     -545.80186      31952.26     
     71000   298.88484     -7717.2295      0             -6292.6502      99.71969       29168.786    
     72000   299.10833     -7783.335       0             -6357.6904      34.408745      26822.012    
     73000   302.63498     -7854.0031      0             -6411.5493     -162.63402      25699.104    
     74000   298.13519     -7843.3883      0             -6422.382      -1136.5017      26127.747    
     75000   299.01367     -7686.5998      0             -6261.4064     -2542.1311      27986.773    
     76000   307.17491     -7546.4445      0             -6082.3521     -2199.0528      30695.681    
     77000   298.52808     -7327.1834      0             -5904.3045     -2352.881       33260.118    
     78000   291.63384     -7241.7515      0             -5851.7327     -2020.5873      34592.116    
     79000   289.97087     -7337.9469      0             -5955.8543     -1368.528       34075.034    
SHAKE stats (type/ave/delta/count) on step 80000
Bond:   1   0.999973  1.52837e-06     1600
Angle:  1   109.47    0.000111724      800
     80000   306.09087     -7582.1484      0             -6123.2229     -1003.0391      31952.26     
     81000   302.02833     -7718.6819      0             -6279.1196      154.08817      29168.786    
     82000   298.83901     -7823.0257      0             -6398.6648      160.6853       26822.012    
     83000   301.14997     -7871.9318      0             -6436.5561     -146.69122      25699.104    
     84000   303.85358     -7840.1957      0             -6391.9337     -1245.7162      26127.747    
     85000   296.63777     -7706.012       0             -6292.1428     -1865.4757      27986.773    
     86000   291.60699     -7458.8231      0             -6068.9322     -1976.3756      30695.681    
     87000   296.7072      -7285.1937      0             -5870.9937     -1841.0468      33260.118    
     88000   299.26119     -7303.2163      0             -5876.8431     -1863.4701      34592.116    
     89000   293.53826     -7367.6053      0             -5968.5095     -746.57051      34075.034    
SHAKE stats (type/ave/delta/count) on step 90000
Bond:   1   0.999973  1.04752e-06     1600
Angle:  1   109.47    8.91555e-05      800
     90000   301.2928      -7559.4565      0             -6123.4        -569.81389      31952.26     
     91000   296.58146     -7706.0779      0             -6292.4771     -422.1825       29168.786    
     92000   294.11673     -7829.5796      0             -6427.7266      229.78243      26822.012    
     93000   301.02783     -7916.4222      0             -6481.6286      179.321        25699.104    
     94000   297.62414     -7872.5745      0             -6454.004      -936.34383      26127.747    
     95000   290.79512     -7685.2745      0             -6299.2533     -1207.4289      27986.773    
     96000   294.53784     -7475.9704      0             -6072.1102     -2703.2006      30695.681    
     97000   301.19092     -7366.9914      0             -5931.4206     -2320.6583      33260.118    
     98000   303.89015     -7317.4678      0             -5869.0316     -1818.0553      34592.116    
     99000   302.28174     -7377.1631      0             -5936.3931     -880.75566      34075.034    
SHAKE stats (type/ave/delta/count) on step 100000
Bond:   1   0.999973  1.1253e-06      1600
Angle:  1   109.47    9.25255e-05      800
    100000   300.02777     -7515.1621      0             -6085.1352     -1079.3985      31952.26     
    101000   304.98949     -7696.5358      0             -6242.8597     -893.79171      29168.786    
    102000   298.47234     -7817.5175      0             -6394.9043      1.2097176      26822.012    
    103000   294.28893     -7848.9169      0             -6446.2431     -832.19846      25699.104    
    104000   297.59699     -7856.4074      0             -6437.9664     -922.65977      26127.747    
    105000   285.48839     -7635.2137      0             -6274.4861     -2055.9439      27986.773    
    106000   303.90002     -7493.6613      0             -6045.1779     -2141.8773      30695.681    
    107000   297.89321     -7339.4156      0             -5919.5626     -2401.866       33260.118    
    108000   295.91085     -7332.1701      0             -5921.7657     -1307.6025      34592.116    
    109000   299.35841     -7431.6144      0             -6004.7779     -1015.571       34075.034    
SHAKE stats (type/ave/delta/count) on step 110000
Bond:   1   0.999973  9.17619e-07     1600
Angle:  1   109.47    9.42424e-05      800
    110000   300.01787     -7528.5757      0             -6098.5959     -452.34781      31952.26     
    111000   298.92505     -7680.693       0             -6255.922       48.386396      29168.786    
    112000   287.13976     -7772.9178      0             -6404.3192     -268.65112      26822.012    
    113000   297.78869     -7853.5574      0             -6434.2026      103.80362      25699.104    
    114000   294.64849     -7855.1187      0             -6450.7311     -1109.099       26127.747    
    115000   289.03155     -7629.2998      0             -6251.6843     -1951.5601      27986.773    
    115728   307.46888     -7594.0452      0             -6128.5515     -2361.0638      29925.742    
Loop time of 1813.41 on 1 procs for 100000 steps with 2400 atoms

Performance: 4.764 ns/day, 5.037 hours/ns, 55.145 timesteps/s, 132.347 katom-step/s
95.3% CPU use with 1 MPI tasks x no OpenMP threads

MPI task timing breakdown:
Section |  min time  |  avg time  |  max time  |%varavg| %total
---------------------------------------------------------------
Pair    | 1486.7     | 1486.7     | 1486.7     |   0.0 | 81.98
Bond    | 0.26193    | 0.26193    | 0.26193    |   0.0 |  0.01
Kspace  | 119.31     | 119.31     | 119.31     |   0.0 |  6.58
Neigh   | 130.61     | 130.61     | 130.61     |   0.0 |  7.20
Comm    | 7.5646     | 7.5646     | 7.5646     |   0.0 |  0.42
Output  | 0.19112    | 0.19112    | 0.19112    |   0.0 |  0.01
Modify  | 66.837     | 66.837     | 66.837     |   0.0 |  3.69
Other   |            | 1.982      |            |       |  0.11

Nlocal:           2400 ave        2400 max        2400 min
Histogram: 1 0 0 0 0 0 0 0 0 0
Nghost:          12772 ave       12772 max       12772 min
Histogram: 1 0 0 0 0 0 0 0 0 0
Neighs:         885953 ave      885953 max      885953 min
Histogram: 1 0 0 0 0 0 0 0 0 0

Total # of neighbors = 885953
Ave neighs/atom = 369.14708
Ave special neighs/atom = 2
Neighbor list builds = 4757
Dangerous builds = 0
unfix 3d
unfix 3c
unfix 3b
unfix 3a

variable modulus python getModulus
python getModulus input 2 press_vol.data 100 return v_modulus format sif here "from nemd.pyfunc import getModulus"
print "Modulus = ${modulus}"
Modulus = 8023.9025920024

variable ave_press python getPress
python getPress input 1 press_vol.data return v_ave_press format sf here "from nemd.pyfunc import getPress"
print "Averaged Press = ${ave_press}"
Averaged Press = -1071.67513507307

fix 6a all press/berendsen iso ${ave_press} 1 1000 modulus ${modulus}
fix 6a all press/berendsen iso -1071.67513507307 1 1000 modulus ${modulus}
fix 6a all press/berendsen iso -1071.67513507307 1 1000 modulus 8023.9025920024
fix 6b all temp/berendsen 298.15 298.15 100
fix 6c all nve
run 100000
PPPM initialization ...
  using 12-bit tables for long-range coulomb (src/kspace.cpp:342)
  G vector (1/distance) = 0.24194891
  grid = 15 15 15
  stencil order = 5
  estimated absolute RMS force accuracy = 0.02262203
  estimated relative force accuracy = 6.8125571e-05
  using double precision FFTW3
  3d grid and FFT values/proc = 8000 3375
Generated 1 of 1 mixed pair_coeff terms from geometric mixing rule
SHAKE stats (type/ave/delta/count) on step 115728
Bond:   1   1.00006   1.79932e-06     1600
Angle:  1   109.47    0.000127825      800
Per MPI rank memory allocation (min/avg/max) = 14.54 | 14.54 | 14.54 Mbytes
   Step          Temp          E_pair         E_mol          TotEng         Press          Volume    
    115728   307.46888     -7594.6403      0             -6129.1467     -2190.7468      29925.742    
    116000   299.45238     -7619.7746      0             -6192.4902     -1111.1225      29342.706    
    117000   305.69658     -7705.4526      0             -6248.4063     -1587.4687      28442.799    
    118000   296.76807     -7733.895       0             -6319.4048     -985.33706      27740.971    
    119000   300.29126     -7780.7245      0             -6349.4417     -909.57365      27456.906    
SHAKE stats (type/ave/delta/count) on step 120000
Bond:   1   0.999998  9.90309e-07     1600
Angle:  1   109.47    9.69444e-05      800
    120000   294.50218     -7763.618       0             -6359.9277     -1133.622       26892.525    
    121000   300.67148     -7781.22        0             -6348.1249     -1324.4271      26805.448    
    122000   288.39275     -7756.3624      0             -6381.7916     -1171.2211      26812.373    
    123000   298.13552     -7760.7849      0             -6339.777      -1120.0531      26948.86     
    124000   296.51245     -7772.6765      0             -6359.4047     -1256.3512      26883.98     
    125000   299.51421     -7841.5306      0             -6413.9515     -1429.6438      26544.138    
    126000   289.7843      -7787.1394      0             -6405.9361     -829.96581      26681.609    
    127000   294.25147     -7786.3875      0             -6383.8922     -965.10037      26565.614    
    128000   301.10998     -7815.6099      0             -6380.4248     -1147.8161      26547.362    
    129000   297.56596     -7834.1556      0             -6415.8624     -1061.9697      26432.822    
SHAKE stats (type/ave/delta/count) on step 130000
Bond:   1   0.999992  1.48175e-06     1600
Angle:  1   109.47    0.000100671      800
    130000   304.34066     -7894.0503      0             -6443.4668     -1112.6743      26155.971    
    131000   300.58938     -7854.5033      0             -6421.7995     -552.82259      26017.214    
    132000   298.8311      -7839.2974      0             -6414.9742     -909.18973      26244.404    
    133000   295.24565     -7836.3352      0             -6429.1013     -318.04259      26521.206    
    134000   295.3853      -7844.8189      0             -6436.9195     -1056.4385      26148.534    
    135000   300.06967     -7852.687       0             -6422.4604     -956.92774      25913.709    
    136000   296.40594     -7828.2357      0             -6415.4716     -442.5645       26058.595    
    137000   302.96497     -7832.6724      0             -6388.6459     -582.80341      26172.526    
    138000   298.28907     -7857.8236      0             -6436.0838     -799.61232      26268.247    
    139000   306.79442     -7890.76        0             -6428.481      -939.1469       26140.747    
SHAKE stats (type/ave/delta/count) on step 140000
Bond:   1   0.999994  1.04902e-06     1600
Angle:  1   109.47    9.14615e-05      800
    140000   295.47998     -7834.0292      0             -6425.6785     -950.82125      26211.258    
    141000   301.75897     -7845.1441      0             -6406.8657     -1024.5293      26297.615    
    142000   299.38857     -7844.5717      0             -6417.5914     -576.26315      26081.471    
    143000   295.10063     -7849.996       0             -6443.4534     -915.48159      26028.932    
    144000   299.54561     -7830.0135      0             -6402.2846     -1210.4672      26181.029    
    145000   297.59912     -7856.7313      0             -6438.28       -470.37219      26090.054    
    146000   296.19253     -7862.2672      0             -6450.5203     -729.88572      25857.289    
    147000   295.54245     -7854.6529      0             -6446.0044     -388.69936      25819.02     
    148000   301.57513     -7881.5525      0             -6444.1504     -1128.3869      25897.252    
    149000   302.74555     -7921.8805      0             -6478.8997     -679.58851      25869.648    
SHAKE stats (type/ave/delta/count) on step 150000
Bond:   1   0.999997  1.13457e-06     1600
Angle:  1   109.47    9.05209e-05      800
    150000   300.82422     -7877.9488      0             -6444.1257     -800.44037      26002.62     
    151000   294.18927     -7806.5842      0             -6404.3854     -846.20457      25538.563    
    152000   294.04821     -7849.8161      0             -6448.2896     -1027.0647      25716.288    
    153000   295.62079     -7842.3951      0             -6433.3732     -930.53514      25647.177    
    154000   296.17767     -7868.3582      0             -6456.682      -629.86346      25611.347    
    155000   295.10081     -7896.864       0             -6490.3205     -208.84037      25443.18     
    156000   297.63441     -7851.708       0             -6433.0886      41.445542      25798.681    
    157000   297.73093     -7824.3212      0             -6405.2418     -606.39222      25787.374    
    158000   290.38646     -7831.7537      0             -6447.6803     -493.67601      25766.897    
    159000   299.27153     -7900.201       0             -6473.7785     -379.63461      25491.757    
SHAKE stats (type/ave/delta/count) on step 160000
Bond:   1   1.00001   1.0841e-06      1600
Angle:  1   109.47    0.000106117      800
    160000   294.00443     -7887.5051      0             -6486.1873     -360.84178      25356.414    
    161000   297.98968     -7900.9235      0             -6480.6107     -511.34001      25414.828    
    162000   305.46044     -7905.6739      0             -6449.7531     -885.29335      25694.758    
    163000   298.05469     -7892.8286      0             -6472.206      -181.46496      25750.15     
    164000   297.93959     -7897.0513      0             -6476.9773     -1202.2392      25592.415    
    165000   301.22073     -7898.4997      0             -6462.7867     -883.59487      25340.489    
    166000   303.24484     -7907.269       0             -6461.9085     -355.50216      25224.975    
    167000   296.3481      -7865.3535      0             -6452.865      -420.61456      25314.952    
    168000   301.11311     -7920.7019      0             -6485.5018     -56.583131      25360.869    
    169000   296.84524     -7934.1869      0             -6519.3289     -706.53715      25283.559    
SHAKE stats (type/ave/delta/count) on step 170000
Bond:   1   1         9.75523e-07     1600
Angle:  1   109.47    8.96667e-05      800
    170000   296.04042     -7885.2885      0             -6474.2665     -442.44875      25342.234    
    171000   296.6902      -7876.0531      0             -6461.9341     -81.490706      25576.993    
    172000   297.38866     -7900.2858      0             -6482.8377     -306.32169      25423.89     
    173000   293.3595      -7899.3006      0             -6501.0567     -182.12313      25292.532    
    174000   295.28513     -7946.5917      0             -6539.1697     -502.82381      25280.892    
    175000   300.51278     -7937.2862      0             -6504.9476     -89.568442      25314.597    
    176000   292.17957     -7898.2302      0             -6505.6102     -479.88964      25018.392    
    177000   293.42101     -7891.4088      0             -6492.8718     -331.44378      25015.019    
    178000   301.2476      -7915.2739      0             -6479.4329     -624.99846      25373.021    
    179000   293.81337     -7879.8926      0             -6479.4854     -275.1439       25359.514    
SHAKE stats (type/ave/delta/count) on step 180000
Bond:   1   0.999993  9.48051e-07     1600
Angle:  1   109.47    8.80703e-05      800
    180000   300.08451     -7910.9865      0             -6480.6891     -559.54993      25109.274    
    181000   298.84844     -7910.2522      0             -6485.8463     -423.89881      24890.91     
    182000   300.45573     -7949.4547      0             -6517.3879     -552.8336       25099.367    
    183000   297.00413     -7913.4241      0             -6497.8088     -448.67439      25414.071    
    184000   303.24576     -7907.6931      0             -6462.3282     -524.69394      25162.454    
    185000   303.17699     -7943.1696      0             -6498.1325     -411.68537      25263.509    
    186000   290.2703      -7876.6429      0             -6493.1231      0.72797983     25119.852    
    187000   294.71267     -7899.2016      0             -6494.5081     -0.18257495     24857.789    
    188000   292.3149      -7881.1713      0             -6487.9063     -111.13728      25028.186    
    189000   294.03707     -7875.1376      0             -6473.6643     -245.53636      24821.089    
SHAKE stats (type/ave/delta/count) on step 190000
Bond:   1   0.999986  1.18807e-06     1600
Angle:  1   109.47    8.95104e-05      800
    190000   299.27408     -7946.8759      0             -6520.4413     -607.85488      25109.608    
    191000   300.45098     -7876.405       0             -6444.361      -145.65185      25292.016    
    192000   297.02662     -7892.8609      0             -6477.1384     -384.21136      25191.122    
    193000   297.80053     -7935.6911      0             -6516.28       -356.1855       25103.058    
    194000   298.32476     -7891.4152      0             -6469.5053     -144.11842      24930.431    
    195000   301.48753     -7915.3332      0             -6478.3486     -366.14545      24710.15     
    196000   296.16671     -7909.8333      0             -6498.2094      240.98274      24477.585    
    197000   294.25692     -7917.2182      0             -6514.697      -28.4442        24640.113    
    198000   296.84272     -7858.4595      0             -6443.6135     -486.31553      24927.751    
    199000   295.93798     -7906.2388      0             -6495.7051     -878.24821      24586.65     
SHAKE stats (type/ave/delta/count) on step 200000
Bond:   1   1         1.10252e-06     1600
Angle:  1   109.47    9.83116e-05      800
    200000   299.12151     -7936.5516      0             -6510.8442     -173.4814       25002.306    
    201000   297.60537     -7976.8807      0             -6558.3997     -607.41885      24967.961    
    202000   296.70794     -7931.69        0             -6517.4864     -416.63028      24920.229    
    203000   296.35752     -7915.2985      0             -6502.7651      531.93758      25216.482    
    204000   296.46018     -7916.8481      0             -6503.8255     -220.91747      24666.891    
    205000   293.60627     -7914.8973      0             -6515.4772      17.534669      24525.36     
    206000   297.24876     -7952.958       0             -6536.1767     -102.78848      24720.498    
    207000   301.48125     -7972.0924      0             -6535.1377      128.3753       24701.599    
    208000   291.34623     -7905.9463      0             -6517.2984     -306.25936      24912.043    
    209000   292.07572     -7935.4724      0             -6543.3475      48.319486      24835.885    
SHAKE stats (type/ave/delta/count) on step 210000
Bond:   1   0.999989  1.34226e-06     1600
Angle:  1   109.47    0.000107836      800
    210000   305.30302     -7950.6257      0             -6495.4552     -327.17504      24949.218    
    211000   297.36167     -7921.6554      0             -6504.336      -546.00799      24760.207    
    212000   300.22578     -7954.1709      0             -6523.2002      404.69704      24933.317    
    213000   300.1941      -7930.0641      0             -6499.2443     -29.203328      25013.874    
    214000   297.3149      -7925.8629      0             -6508.7663     -107.18178      24825.447    
    215000   305.27635     -7940.8841      0             -6485.8408     -248.17431      24503.767    
    215728   294.39471     -7893.7075      0             -6490.5295     -261.69607      24548.802    
Loop time of 1798.97 on 1 procs for 100000 steps with 2400 atoms

Performance: 4.803 ns/day, 4.997 hours/ns, 55.587 timesteps/s, 133.410 katom-step/s
98.3% CPU use with 1 MPI tasks x no OpenMP threads

MPI task timing breakdown:
Section |  min time  |  avg time  |  max time  |%varavg| %total
---------------------------------------------------------------
Pair    | 1498.8     | 1498.8     | 1498.8     |   0.0 | 83.31
Bond    | 0.25028    | 0.25028    | 0.25028    |   0.0 |  0.01
Kspace  | 105.36     | 105.36     | 105.36     |   0.0 |  5.86
Neigh   | 127.21     | 127.21     | 127.21     |   0.0 |  7.07
Comm    | 7.3679     | 7.3679     | 7.3679     |   0.0 |  0.41
Output  | 0.17849    | 0.17849    | 0.17849    |   0.0 |  0.01
Modify  | 57.996     | 57.996     | 57.996     |   0.0 |  3.22
Other   |            | 1.857      |            |       |  0.10

Nlocal:           2400 ave        2400 max        2400 min
Histogram: 1 0 0 0 0 0 0 0 0 0
Nghost:          13844 ave       13844 max       13844 min
Histogram: 1 0 0 0 0 0 0 0 0 0
Neighs:    1.07864e+06 ave 1.07864e+06 max 1.07864e+06 min
Histogram: 1 0 0 0 0 0 0 0 0 0

Total # of neighbors = 1078635
Ave neighs/atom = 449.43125
Ave special neighs/atom = 2
Neighbor list builds = 4672
Dangerous builds = 0
unfix 6c
unfix 6b
unfix 6a

fix 7a all press/berendsen iso 1.0 1 1000 modulus ${modulus}
fix 7a all press/berendsen iso 1.0 1 1000 modulus 8023.9025920024
fix 7b all temp/berendsen 298.15 298.15 100
fix 7c all nve
run 1000000
PPPM initialization ...
  using 12-bit tables for long-range coulomb (src/kspace.cpp:342)
  G vector (1/distance) = 0.24697201
  grid = 15 15 15
  stencil order = 5
  estimated absolute RMS force accuracy = 0.01855519
  estimated relative force accuracy = 5.5878405e-05
  using double precision FFTW3
  3d grid and FFT values/proc = 10648 3375
Generated 1 of 1 mixed pair_coeff terms from geometric mixing rule
SHAKE stats (type/ave/delta/count) on step 215728
Bond:   1   0.999978  1.09529e-06     1600
Angle:  1   109.47    9.4804e-05       800
Per MPI rank memory allocation (min/avg/max) = 22.29 | 22.29 | 22.29 Mbytes
   Step          Temp          E_pair         E_mol          TotEng         Press          Volume    
    215728   294.39471     -7893.474       0             -6490.296      -339.05119      24548.802    
    216000   299.83648     -7911.7303      0             -6482.6151     -15.742714      24601.419    
    217000   295.4964      -7900.6246      0             -6492.1956      52.349898      24591.205    
    218000   300.69592     -7931.8257      0             -6498.6141     -57.69108       24638.67     
    219000   298.01352     -7959.9796      0             -6539.5532      12.437782      24514.411    
SHAKE stats (type/ave/delta/count) on step 220000
Bond:   1   1.00001   1.32489e-06     1600
Angle:  1   109.47    0.000120207      800
    220000   305.80822     -7973.1782      0             -6515.5998      293.05289      24499.862    
    221000   301.8805      -7975.8618      0             -6537.0041     -122.65343      24878.142    
    222000   300.36892     -7953.5087      0             -6521.8557     -7.0158146      24759.241    
    223000   303.15352     -7972.04        0             -6527.1148     -24.469634      24564.45     
    224000   303.09528     -7957.4835      0             -6512.8358     -0.34540391     24650.878    
    225000   295.85671     -7907.6215      0             -6497.4751      16.452428      24444.436    
    226000   294.17018     -7893.822       0             -6491.7141     -280.31854      24583.188    
    227000   299.36613     -7966.6863      0             -6539.8129     -417.75238      24435.264    
    228000   297.18773     -7934.389       0             -6517.8986     -267.35708      24674.806    
    229000   293.89633     -7953.8574      0             -6553.0549      272.99608      24688.824    
SHAKE stats (type/ave/delta/count) on step 230000
Bond:   1   0.999994  1.25511e-06     1600
Angle:  1   109.47    8.64901e-05      800
    230000   300.92236     -7953.8736      0             -6519.5827     -149.32948      24794.475    
    231000   300.10616     -7927.8523      0             -6497.4517      15.408695      24793.067    
    232000   297.21648     -7881.1135      0             -6464.4861     -389.8266       24531.774    
    233000   297.81761     -7957.0076      0             -6537.515      -131.00983      24596.15     
    234000   298.63766     -7948.2053      0             -6524.804       325.16094      24696.668    
    235000   294.55145     -7914.5245      0             -6510.5995      130.66536      24716.906    
    236000   295.13974     -7910.5976      0             -6503.8685     -493.45674      24701.632    
    237000   303.12827     -7984.7306      0             -6539.9257      313.10466      24443.667    
    238000   298.90989     -7966.662       0             -6541.9632      53.439744      24692.692    
    239000   301.92998     -7937.1431      0             -6498.0497     -142.14203      24473.812    
SHAKE stats (type/ave/delta/count) on step 240000
Bond:   1   1         1.11832e-06     1600
Angle:  1   109.47    0.000118576      800
    240000   290.45445     -7910.3402      0             -6525.9427      106.4821       24295.281    
    241000   304.58345     -7972.1692      0             -6520.4285     -44.664173      24420.585    
    242000   291.36685     -7944.8473      0             -6556.101       357.77872      24757.104    
    243000   290.89864     -7888.7996      0             -6502.2849      219.53522      24876.324    
    244000   305.82754     -7947.8979      0             -6490.2275      75.236685      24747.756    
    245000   293.67464     -7884.7802      0             -6485.0343      68.284515      24624.792    
    246000   291.47958     -7916.0985      0             -6526.8149      366.57615      24588.675    
    247000   300.99649     -7944.0919      0             -6509.4477     -101.67042      24602.08     
    248000   295.24125     -7946.1986      0             -6538.9857     -89.228097      24481.425    
    249000   288.34102     -7909.78        0             -6535.4558     -124.63528      24621.46     
SHAKE stats (type/ave/delta/count) on step 250000
Bond:   1   1.00002   1.07001e-06     1600
Angle:  1   109.47    8.55582e-05      800
    250000   298.03369     -7936.4137      0             -6515.8912      360.68154      24648.459    
    251000   298.37633     -7901.8433      0             -6479.6876     -188.05205      24548.727    
    252000   298.00634     -7944.4425      0             -6524.0503      108.82931      24513.801    
    253000   299.86158     -7972.9808      0             -6543.746      -184.09787      24560.491    
    254000   300.04281     -7981.4453      0             -6551.3467      119.11172      24671.181    
    255000   296.80454     -7929.0294      0             -6514.3653     -228.42642      24634.226    
    256000   294.57466     -7920.0648      0             -6516.0291      232.31798      24602.616    
    257000   295.50872     -7933.8514      0             -6525.3637      37.941575      24604.527    
    258000   292.13801     -7892.0856      0             -6499.6637      281.44887      24535.266    
    259000   297.36621     -7952.2086      0             -6534.8675      497.22689      24400.068    
SHAKE stats (type/ave/delta/count) on step 260000
Bond:   1   0.99999   1.26038e-06     1600
Angle:  1   109.47    0.000102761      800
    260000   303.94909     -7975.6299      0             -6526.9127     -251.11245      24459.492    
    261000   300.65517     -7941.411       0             -6508.3936      163.65967      24387.524    
    262000   298.09336     -7942.5864      0             -6521.7795      62.836105      24797.204    
    263000   299.307       -7960.8717      0             -6534.2802      223.24482      24672.576    
    264000   293.35931     -7911.7011      0             -6513.4582      395.81024      24476.474    
    265000   294.63791     -7910.1872      0             -6505.85        181.88973      24745.025    
    266000   294.66448     -7947.2889      0             -6542.8251      506.77927      24984.528    
    267000   299.92878     -7919.8214      0             -6490.2663     -54.044146      24797.557    
    268000   292.30998     -7888.3597      0             -6495.1182      95.93518       24702.786    
    269000   304.2156      -7948.7294      0             -6498.742       276.84267      24755.702    
SHAKE stats (type/ave/delta/count) on step 270000
Bond:   1   1.00002   1.05764e-06     1600
Angle:  1   109.47    8.81543e-05      800
    270000   297.00339     -7905.6178      0             -6490.006       534.00609      24593.172    
    271000   296.87425     -7905.1754      0             -6490.1791      155.96181      24571.558    
    272000   294.92731     -7894.5469      0             -6488.8304      119.97662      24920.577    
    273000   299.95694     -7990.2316      0             -6560.5423     -64.577339      24927.361    
    274000   300.33165     -7968.4578      0             -6536.9825     -54.081005      25147.705    
    275000   293.93094     -7918.6768      0             -6517.7093     -87.497068      24790.998    
    276000   300.03211     -7926.7543      0             -6496.7067      12.586782      24955.96     
    277000   296.92831     -7893.3954      0             -6478.1415     -2.824892       24818.442    
    278000   299.70452     -7906.1986      0             -6477.7124     -155.08254      24748.213    
    279000   293.60403     -7907.5469      0             -6508.1375      380.54136      24604.745    
SHAKE stats (type/ave/delta/count) on step 280000
Bond:   1   1         1.0455e-06      1600
Angle:  1   109.47    9.0566e-05       800
    280000   295.22117     -7837.1644      0             -6430.0473      32.963612      24731.24     
    281000   296.06051     -7898.8328      0             -6487.7151     -95.983632      24835.83     
    282000   299.1372      -7912.7101      0             -6486.9279      39.995789      24623.788    
    283000   298.63068     -7916.4937      0             -6493.1257     -20.078553      24472.087    
    284000   293.17881     -7866.2992      0             -6468.9166      827.27543      24590.72     
    285000   293.03461     -7929.3661      0             -6532.6708      172.70003      24533.261    
    286000   299.92157     -7966.9591      0             -6537.4384     -147.72214      24630.962    
    287000   291.94201     -7907.6823      0             -6516.1947      413.15466      24501.989    
    288000   295.34673     -7933.7919      0             -6526.0763      395.7365       24690.841    
    289000   301.44433     -7930.1716      0             -6493.3929     -308.1999       24694.262    
SHAKE stats (type/ave/delta/count) on step 290000
Bond:   1   0.999989  1.36014e-06     1600
Angle:  1   109.47    9.3167e-05       800
    290000   301.50308     -7933.062       0             -6496.0032     -292.77633      24751.159    
    291000   302.5544      -7974.8547      0             -6532.7851      30.673221      24863.728    
    292000   303.51567     -7971.7921      0             -6525.1407      222.97316      24770.538    
    293000   293.20303     -7946.7132      0             -6549.2152      402.71797      24575.174    
    294000   297.81056     -7961.7238      0             -6542.2648      232.52774      24577.259    
    295000   295.71085     -7914.4294      0             -6504.9783     -154.7792       24669.123    
    296000   296.73897     -7913.8118      0             -6499.4603     -445.11713      24577.906    
    297000   300.97512     -7938.0629      0             -6503.5206     -408.81655      24501.794    
    298000   297.82351     -7944.6725      0             -6525.1518     -494.33013      24379.349    
    299000   299.56795     -7908.818       0             -6480.9827     -591.07781      24547.907    
SHAKE stats (type/ave/delta/count) on step 300000
Bond:   1   1         1.11564e-06     1600
Angle:  1   109.47    9.18085e-05      800
    300000   300.16186     -7966.0695      0             -6535.4034      76.790311      24497.498    
    301000   299.80737     -7974.1287      0             -6545.1523     -211.94883      24625.317    
    302000   297.85073     -7976.4886      0             -6556.8382      50.221211      24829.474    
    303000   290.61209     -7970.0121      0             -6584.8632      29.166062      24647.236    
    304000   298.09533     -7938.6107      0             -6517.7944      156.27986      24333.484    
    305000   303.42657     -7995.9765      0             -6549.7498      398.52188      24495.395    
    306000   308.42747     -7994.9188      0             -6524.8563      122.05497      24559.871    
    307000   296.01932     -7939.6872      0             -6528.7658     -460.12602      24986.428    
    308000   294.74791     -7910.6261      0             -6505.7646      19.135841      24613.439    
    309000   296.98732     -7938.1173      0             -6522.5821     -58.111414      24640.99     
SHAKE stats (type/ave/delta/count) on step 310000
Bond:   1   1.00003   1.28461e-06     1600
Angle:  1   109.47    0.000108877      800
    310000   289.72523     -7923.2854      0             -6542.3636      593.80424      24428.912    
    311000   294.82353     -7934.0955      0             -6528.8736      303.81457      24376.941    
    312000   295.13373     -7943.344       0             -6536.6436     -129.34067      24501.183    
    313000   294.10661     -7917.4457      0             -6515.6408      539.18381      24685.734    
    314000   294.0111      -7909.4845      0             -6508.1349      50.15688       24637.412    
    315000   303.07843     -7957.966       0             -6513.3987      136.98839      24692.51     
    316000   298.2724      -7964.0558      0             -6542.3955      1.6798931      24696.529    
    317000   299.61957     -7954.5558      0             -6526.4744      313.08285      24811.96     
    318000   297.76057     -7900.1774      0             -6480.9566     -144.53356      24771.431    
    319000   301.01729     -7943.7326      0             -6508.9893      494.77822      24609.181    
SHAKE stats (type/ave/delta/count) on step 320000
Bond:   1   0.999999  1.25393e-06     1600
Angle:  1   109.47    8.7849e-05       800
    320000   295.56398     -7901.3863      0             -6492.6352     -2.7269001      24621.268    
    321000   300.22639     -7953.1506      0             -6522.177      -76.014021      24658.095    
    322000   293.5417      -7922.6825      0             -6523.5702      116.37094      24792.746    
    323000   303.19313     -8003.3731      0             -6558.2591     -195.64811      24939.416    
    324000   296.4066      -7992.4638      0             -6579.6965     -25.492597      24891.79     
    325000   299.04585     -7932.543       0             -6507.1962      136.58082      24705.566    
    326000   293.53778     -7877.6084      0             -6478.5148     -226.425        24793.781    
    327000   299.2163      -7944.613       0             -6518.4538     -623.41454      24751.028    
    328000   300.90038     -7954.2467      0             -6520.0606      51.285944      24449.278    
    329000   299.28402     -7942.786       0             -6516.304       242.50065      24527.991    
SHAKE stats (type/ave/delta/count) on step 330000
Bond:   1   1.00001   9.66628e-07     1600
Angle:  1   109.47    9.79343e-05      800
    330000   293.65274     -7916.5986      0             -6516.9571      181.39642      24633.924    
    331000   300.92343     -7935.9818      0             -6501.6859      33.967817      24609.089    
    332000   300.74708     -7974.5679      0             -6541.1125     -212.06754      24732.182    
    333000   297.70924     -7934.5958      0             -6515.6197     -166.21105      25022.986    
    334000   296.69103     -7919.3194      0             -6505.1964     -43.528954      24880.111    
    335000   297.15204     -7970.4441      0             -6554.1238      128.5016       24635.528    
    336000   300.14835     -7972.8545      0             -6542.2528      159.8931       24449.1      
    337000   297.7752      -7910.2071      0             -6490.9167      104.88043      24528.502    
    338000   300.20153     -7975.5727      0             -6544.7175      53.7247        24832.016    
    339000   293.17334     -7904.5458      0             -6507.1892      439.66506      24644.612    
SHAKE stats (type/ave/delta/count) on step 340000
Bond:   1   1         1.08873e-06     1600
Angle:  1   109.47    9.92099e-05      800
    340000   291.78653     -7899.0855      0             -6508.3389     -13.811511      24687.244    
    341000   290.06065     -7889.7523      0             -6507.2318      211.16813      24729.237    
    342000   298.61478     -7935.637       0             -6512.3448      313.94016      24711.216    
    343000   291.09986     -7859.3039      0             -6471.8302     -0.60444889     25058.349    
    344000   297.97616     -7920.4181      0             -6500.1698      23.930215      24888.467    
    345000   297.40759     -7903.658       0             -6486.1197     -83.449199      24689.312    
    346000   295.62307     -7936.1321      0             -6527.0993     -417.23649      24671.996    
    347000   299.44557     -7977.6106      0             -6550.3586      315.3816       24503.357    
    348000   297.64613     -7991.8455      0             -6573.1702     -122.42933      24913.662    
    349000   298.96652     -7933.5775      0             -6508.6088      262.05578      24727.742    
SHAKE stats (type/ave/delta/count) on step 350000
Bond:   1   0.999993  1.16555e-06     1600
Angle:  1   109.47    0.000112405      800
    350000   302.97296     -7930.8351      0             -6486.7705     -146.75802      24870.538    
    351000   293.03353     -7902.6851      0             -6505.9949      135.20174      24617.221    
    352000   301.24418     -7951.2489      0             -6515.4241     -59.761075      24605.527    
    353000   299.86069     -7915.5874      0             -6486.3568     -46.562982      24847.886    
    354000   300.13649     -7937.1949      0             -6506.6497      468.30508      24732.851    
    355000   296.19895     -7909.205       0             -6497.4274     -36.474657      24863.381    
    356000   298.27421     -7927.9794      0             -6506.3105      187.26607      24703.503    
    357000   293.79343     -7934.0654      0             -6533.7533     -449.89079      24485.878    
    358000   296.50573     -7955.0013      0             -6541.7615      48.033595      24671.718    
    359000   296.61825     -7952.1186      0             -6538.3425      262.39264      24649.687    
SHAKE stats (type/ave/delta/count) on step 360000
Bond:   1   1         1.14602e-06     1600
Angle:  1   109.47    0.000100002      800
    360000   300.37619     -7974.8333      0             -6543.1456      27.820744      24572.215    
    361000   296.25192     -7978.9346      0             -6566.9045      33.346869      24946.981    
    362000   301.15256     -7948.8377      0             -6513.4496     -48.392074      24788.409    
    363000   297.9307      -7960.4145      0             -6540.3829     -410.70355      24814.166    
    364000   300.45331     -7930.3463      0             -6498.2911     -14.825801      24955.549    
    365000   301.06724     -7994.3891      0             -6559.4077      436.75641      24751.548    
    366000   300.89841     -7960.4888      0             -6526.3121     -111.28397      24698.735    
    367000   301.0736      -7967.4471      0             -6532.4355     -285.02115      24611.359    
    368000   299.74107     -7928.7366      0             -6500.0761     -67.964032      24926.11     
    369000   298.94919     -7921.4251      0             -6496.5391     -368.96289      24748.64     
SHAKE stats (type/ave/delta/count) on step 370000
Bond:   1   0.999993  9.81958e-07     1600
Angle:  1   109.47    8.96945e-05      800
    370000   297.51933     -7953.9225      0             -6535.8516     -173.37326      24682.182    
    371000   301.42377     -7960.0267      0             -6523.346      -177.53928      24607.349    
    372000   302.13393     -7959.0255      0             -6518.9599     -331.27426      24515.178    
    373000   298.64681     -7940.3016      0             -6516.8568      113.6936       24475.929    
    374000   298.58667     -7951.1         0             -6527.9418      402.86197      24855.054    
    375000   297.78048     -7931.8666      0             -6512.5509      5.326281       25039.229    
    376000   291.42284     -7885.5084      0             -6496.4953     -97.075059      24629.835    
    377000   298.30476     -7960.2469      0             -6538.4324     -327.81257      24531.727    
    378000   295.65678     -7886.5814      0             -6477.388      -270.70838      24624.976    
    379000   304.15377     -7998.9291      0             -6549.2364      2.3365121      24796.467    
SHAKE stats (type/ave/delta/count) on step 380000
Bond:   1   1         1.31178e-06     1600
Angle:  1   109.47    9.29711e-05      800
    380000   293.35263     -7910.8512      0             -6512.6401      24.997393      24550.194    
    381000   294.63916     -7940.0212      0             -6535.6781      453.21303      24732.558    
    382000   293.74349     -7946.3807      0             -6546.3067     -232.80204      24643.077    
    383000   303.62517     -7999.3004      0             -6552.1271      419.13638      24639.644    
    384000   298.04755     -7929.6332      0             -6509.0446     -226.13656      24726.416    
    385000   295.94242     -7907.6461      0             -6497.0913     -277.57428      24706.532    
    386000   300.10071     -7944.7254      0             -6514.3508     -257.58544      24639.173    
    387000   289.20706     -7883.1552      0             -6504.7032      183.41893      24660.708    
    388000   289.01446     -7900.5616      0             -6523.0275      337.14081      24763.297    
    389000   302.0093      -7986.11        0             -6546.6385      181.40822      24776.847    
SHAKE stats (type/ave/delta/count) on step 390000
Bond:   1   1         1.03515e-06     1600
Angle:  1   109.47    8.54704e-05      800
    390000   297.8093      -7961.4214      0             -6541.9684      107.99063      24797.508    
    391000   293.40564     -7901.2029      0             -6502.7391      107.58874      24834.824    
    392000   305.6234      -7991.7374      0             -6535.0399     -6.9458664      24636.981    
    393000   293.82198     -7919.4354      0             -6518.9871      122.17737      24848.582    
    394000   294.18068     -7934.2489      0             -6532.0911     -75.814185      24581.053    
    395000   290.12989     -7895.6862      0             -6512.8357     -20.000485      24679.932    
    396000   298.63567     -7903.6604      0             -6480.2686     -711.0701       24523.337    
    397000   298.72585     -7908.1843      0             -6484.3627      211.49059      24714.294    
    398000   309.80168     -7945.8417      0             -6469.2292     -583.44088      24930.528    
    399000   303.96335     -7940.5284      0             -6491.7432      45.7298        24740.914    
SHAKE stats (type/ave/delta/count) on step 400000
Bond:   1   1         1.17214e-06     1600
Angle:  1   109.47    8.73092e-05      800
    400000   296.29432     -7935.2056      0             -6522.9735      80.130386      24585.021    
    401000   299.48577     -7966.8325      0             -6539.3889      319.98341      24689.123    
    402000   292.51143     -7915.5801      0             -6521.3783      410.48206      24704.015    
    403000   301.56142     -7965.4764      0             -6528.1396     -84.875641      24668.324    
    404000   286.20836     -7859.9246      0             -6495.7653      293.80581      24517.46     
    405000   305.20498     -7957.9716      0             -6503.2684      264.4774       24437.852    
    406000   302.45681     -7983.194       0             -6541.5894     -443.80323      24423.785    
    407000   301.56413     -7969.584       0             -6532.2343      98.722169      24240.069    
    408000   299.89081     -7952.507       0             -6523.1328     -130.0057       24580.541    
    409000   307.81379     -8005.8491      0             -6538.7115     -105.84493      24340.293    
SHAKE stats (type/ave/delta/count) on step 410000
Bond:   1   0.999982  1.14995e-06     1600
Angle:  1   109.47    9.31175e-05      800
    410000   299.57098     -7959.9723      0             -6532.1225     -451.74913      24383.275    
    411000   290.25572     -7917.3502      0             -6533.8999      120.84677      24659.897    
    412000   296.3292      -7945.8762      0             -6533.4778      263.89366      24473.09     
    413000   289.97161     -7907.3259      0             -6525.2298     -5.3971293      24648.444    
    414000   294.56416     -7880.8046      0             -6476.8189      356.37308      24807.563    
    415000   294.88634     -7924.0598      0             -6518.5385      228.891        24899.494    
    416000   296.71524     -7905.7565      0             -6491.5182      231.30251      24987.893    
    417000   300.84126     -7962.4103      0             -6528.506       177.1636       24642.572    
    418000   299.40612     -7968.3116      0             -6541.2477     -40.426683      24565.328    
    419000   301.62838     -7935.2493      0             -6497.5934      332.53243      24662.306    
SHAKE stats (type/ave/delta/count) on step 420000
Bond:   1   1.00001   1.04848e-06     1600
Angle:  1   109.47    8.36629e-05      800
    420000   298.38159     -7940.3484      0             -6518.1677      111.55748      24610.757    
    421000   297.47477     -7958.3423      0             -6540.4838     -46.297686      24615.041    
    422000   292.88496     -7948.3089      0             -6552.3268     -203.15842      24507.77     
    423000   297.80575     -7966.1788      0             -6546.7427     -112.47326      24408.014    
    424000   293.26694     -7865.017       0             -6467.2143     -169.2775       24348.588    
    425000   296.43884     -7931.3554      0             -6518.4344      321.75281      24353.497    
    426000   303.08133     -7963.2373      0             -6518.6561      333.14804      24187.791    
    427000   296.50687     -7897.646       0             -6484.4008      298.98737      24496.798    
    428000   303.81616     -7967.0529      0             -6518.9693     -157.2157       24692.446    
    429000   297.99029     -7971.1         0             -6550.7844      407.85751      24451.552    
SHAKE stats (type/ave/delta/count) on step 430000
Bond:   1   0.999993  1.24412e-06     1600
Angle:  1   109.47    8.64496e-05      800
    430000   295.08045     -7910.3107      0             -6503.8642     -184.08798      24743.506    
    431000   300.0372      -7935.1578      0             -6505.0859      258.33729      24799.57     
    432000   297.53428     -7943.1645      0             -6525.0223      172.07035      24726.494    
    433000   292.01115     -7913.8867      0             -6522.0695      359.7544       24958.684    
    434000   290.5296      -7887.5118      0             -6502.7561      161.17217      24702.841    
    435000   292.34233     -7923.469       0             -6530.0732     -181.10065      24736.298    
    436000   290.36166     -7897.8665      0             -6513.9113     -55.74165       24548.5      
    437000   294.30562     -7931.4441      0             -6528.6907      230.61208      24474.278    
    438000   293.21093     -7922.6805      0             -6525.1448     -84.72489       24630.417    
    439000   300.32506     -7951.6947      0             -6520.2508     -17.897078      24593.991    
SHAKE stats (type/ave/delta/count) on step 440000
Bond:   1   0.999999  1.07992e-06     1600
Angle:  1   109.47    9.13318e-05      800
    440000   293.0408      -7971.6718      0             -6574.947      -5.3165516      24661.348    
    441000   295.64225     -7936.2347      0             -6527.1105     -155.497        24583.782    
    442000   304.10722     -8010.2515      0             -6560.7806     -279.17413      24655.125    
    443000   297.5328      -7964.6635      0             -6546.5284     -163.84241      24523.87     
    444000   299.30438     -7960.2865      0             -6533.7074     -222.43262      24603.411    
    445000   300.50444     -8000.3842      0             -6568.0853     -50.565042      24524.897    
    446000   302.35395     -8004.5809      0             -6563.4666      98.873693      24675.017    
    447000   298.16666     -7930.2706      0             -6509.1143     -134.22997      24843.614    
    448000   299.54524     -7933.4812      0             -6505.7542     -152.52077      24587.154    
    449000   310.04443     -7985.3795      0             -6507.61        50.097236      24399.384    
SHAKE stats (type/ave/delta/count) on step 450000
Bond:   1   0.999991  9.55046e-07     1600
Angle:  1   109.47    8.93845e-05      800
    450000   298.47375     -7968.2747      0             -6545.6547     -193.30176      24459.681    
    451000   299.36254     -7947.3569      0             -6520.5007     -245.05216      24675.558    
    452000   301.48877     -7929.5794      0             -6492.5888      343.66293      24784.837    
    453000   299.23519     -7978.2933      0             -6552.0441      143.52179      24900.047    
    454000   301.9461      -7929.6923      0             -6490.522      -140.09423      24789.559    
    455000   306.45775     -7973.6515      0             -6512.9772     -738.37195      24812.074    
    456000   292.61874     -7916.5258      0             -6521.8126     -401.42446      24626.27     
    457000   298.25805     -7937.0125      0             -6515.4206      277.22902      24792.278    
    458000   304.29081     -7926.2262      0             -6475.8802      148.83221      24892.245    
    459000   301.98907     -7982.7185      0             -6543.3434     -215.59758      24481.391    
SHAKE stats (type/ave/delta/count) on step 460000
Bond:   1   1         1.47968e-06     1600
Angle:  1   109.47    0.000114364      800
    460000   305.73153     -7991.2772      0             -6534.0643      57.068582      24413.381    
    461000   290.21667     -7946.7704      0             -6563.5063     -301.62395      24717.568    
    462000   290.54264     -7944.2191      0             -6559.4012      324.17587      24613.697    
    463000   303.5979      -8001.1037      0             -6554.0603     -168.81185      24842.829    
    464000   297.22639     -7925.383       0             -6508.7083      264.41531      24866.729    
    465000   298.26412     -7921.2635      0             -6499.6427     -166.97262      24600.997    
    466000   295.44927     -7952.1191      0             -6543.9148     -131.13621      24246.648    
    467000   294.53472     -7916.9453      0             -6513.1         239.4436       24608.438    
    468000   291.79203     -7988.1278      0             -6597.355       5.3797561      24499.119    
    469000   299.51314     -7937.8696      0             -6510.2955     -66.889003      24589.017    
SHAKE stats (type/ave/delta/count) on step 470000
Bond:   1   0.999996  9.15224e-07     1600
Angle:  1   109.47    8.93739e-05      800
    470000   297.78052     -7928.4908      0             -6509.175      -107.46564      24870.056    
    471000   292.6776      -7917.9461      0             -6522.9524      6.4715465      24820.95     
    472000   300.35649     -7992.0402      0             -6560.4464      261.85976      24745.678    
    473000   297.62106     -7926.2797      0             -6507.7239     -346.86748      24716.52     
    474000   300.6709      -7946.7783      0             -6513.686       95.216886      24911.291    
    475000   299.68693     -7958.5171      0             -6530.1147     -110.25096      24638.073    
    476000   304.0668      -7924.3357      0             -6475.0575     -244.82387      24415.295    
    477000   293.10862     -7895.7169      0             -6498.6689     -88.625287      24494.063    
    478000   302.13655     -7944.2479      0             -6504.1699     -45.481156      24831.641    
    479000   297.22753     -7935.1619      0             -6518.4818      10.415216      24670.169    
SHAKE stats (type/ave/delta/count) on step 480000
Bond:   1   1.00001   1.19398e-06     1600
Angle:  1   109.47    0.000106553      800
    480000   303.8402      -7943.5095      0             -6495.3114      285.76689      24829.681    
    481000   299.8077      -7943.814       0             -6514.836       50.622881      24653.144    
    482000   304.83984     -7969.0967      0             -6516.1339     -568.04827      24526.015    
    483000   290.45201     -7918.5454      0             -6534.1596      140.88353      24564.873    
    484000   298.69073     -7960.525       0             -6536.8709     -24.15504       24830.448    
    485000   294.71431     -7914.6053      0             -6509.904       247.8515       24702.738    
    486000   298.10172     -7954.4559      0             -6533.6091      99.411351      24644.09     
    487000   292.02177     -7920.1155      0             -6528.2477      34.296112      24668.068    
    488000   294.37832     -7927.8231      0             -6524.7232      179.34855      24725.865    
    489000   292.34732     -7949.4058      0             -6555.9863      312.9698       24887.742    
SHAKE stats (type/ave/delta/count) on step 490000
Bond:   1   0.999995  1.02939e-06     1600
Angle:  1   109.47    8.70755e-05      800
    490000   299.03976     -7952.3244      0             -6527.0066     -110.80529      25011.088    
    491000   302.99783     -7957.8591      0             -6513.6759     -135.27588      24868.874    
    492000   294.78094     -7979.7248      0             -6574.7059      157.90599      24702.176    
    493000   304.07104     -8005.2415      0             -6555.943      -78.373322      24703.787    
    494000   294.7929      -7922.848       0             -6517.7721      82.989812      24687.653    
    495000   299.9769      -7953.9489      0             -6524.1644     -139.9159       24786.059    
    496000   297.37887     -7950.7944      0             -6533.3929     -31.489274      24536.122    
    497000   297.59344     -7896.0747      0             -6477.6506      492.90008      24557.018    
    498000   294.71392     -7928.6919      0             -6523.9924     -142.33826      24682.536    
    499000   300.08973     -7944.8291      0             -6514.5069     -173.55         24774.789    
SHAKE stats (type/ave/delta/count) on step 500000
Bond:   1   0.999992  1.06783e-06     1600
Angle:  1   109.47    9.29879e-05      800
    500000   301.4227      -7965.4923      0             -6528.8167     -196.3693       24786.201    
    501000   303.08143     -7959.184       0             -6514.6023     -19.722383      24564.193    
    502000   293.40089     -7900.4329      0             -6501.9918     -79.657297      24772.422    
    503000   295.0629      -7934.2168      0             -6527.854      -118.35355      24672.404    
    504000   294.78873     -7950.3815      0             -6545.3255      335.38885      24769.318    
    505000   304.80282     -7980.8335      0             -6528.0472      126.9515       24876.341    
    506000   293.06933     -7938.235       0             -6541.3742      361.4741       24998.119    
    507000   304.35801     -7972.4838      0             -6521.8176     -199.98335      24753.44     
    508000   300.29005     -7945.7152      0             -6514.4382     -144.51807      24844.946    
    509000   294.37684     -7917.4107      0             -6514.3179     -387.0095       24977.01     
SHAKE stats (type/ave/delta/count) on step 510000
Bond:   1   1         1.32083e-06     1600
Angle:  1   109.47    0.000113449      800
    510000   289.90862     -7872.3902      0             -6490.5943      33.548913      24993.597    
    511000   302.13454     -7947.3201      0             -6507.2516     -238.94995      24802.892    
    512000   299.2923      -7903.2284      0             -6476.7069      128.69291      24691.116    
    513000   299.8863      -7893.9475      0             -6464.5949     -238.97509      24601.351    
    514000   304.29209     -7984.8911      0             -6534.5391     -218.40223      24608.753    
    515000   305.23766     -7971.9818      0             -6517.1229     -374.34294      24726.978    
    516000   292.68376     -7929.4426      0             -6534.4195     -51.809237      24479.855    
    517000   294.78432     -7922.7974      0             -6517.7624      417.71899      24497.86     
    518000   303.84641     -8014.7508      0             -6566.523      -1180.8029      24387.227    
    519000   300.39811     -7993.4217      0             -6561.6296      155.81854      24471.941    
SHAKE stats (type/ave/delta/count) on step 520000
Bond:   1   0.999995  1.02965e-06     1600
Angle:  1   109.47    9.67536e-05      800
    520000   294.13553     -7949.0551      0             -6547.1124     -140.00521      24702.604    
    521000   297.36167     -7962.6371      0             -6545.3176      20.433093      24637.758    
    522000   294.76208     -7943.4009      0             -6538.4719     -536.14058      24824.336    
    523000   299.13121     -7955.0666      0             -6529.313       451.52338      24660.1      
    524000   295.44135     -7926.1417      0             -6517.9751     -404.36243      24721.155    
    525000   292.46738     -7991.2998      0             -6597.3081      86.134765      24605.74     
    526000   297.17691     -7994.4918      0             -6578.053      -293.78952      24656.596    
    527000   294.97339     -7957.7952      0             -6551.859       358.19571      24727.001    
    528000   296.63243     -7920.4938      0             -6506.6502     -0.10209274     24731.076    
    529000   301.09322     -7944.8267      0             -6509.7215      15.65593       24912.109    
SHAKE stats (type/ave/delta/count) on step 530000
Bond:   1   0.99999   1.08366e-06     1600
Angle:  1   109.47    8.8037e-05       800
    530000   297.28763     -7963.1592      0             -6546.1926     -236.06028      24614.39     
    531000   287.66138     -7890.2661      0             -6519.1812      361.70602      24757.153    
    532000   296.27915     -7907.5831      0             -6495.4232     -389.81763      24880.331    
    533000   297.5663      -7936.7022      0             -6518.4074     -126.9663       24789.08     
    534000   300.56238     -7940.828       0             -6508.253       380.30355      24613.579    
    535000   291.33872     -7911.5501      0             -6522.9379     -20.968483      24516.617    
    536000   306.29952     -7969.0396      0             -6509.1195     -695.03742      24643.602    
    537000   299.59138     -7929.7678      0             -6501.8208      34.095582      24603.652    
    538000   300.25701     -8005.1401      0             -6574.0205      133.72665      24620.582    
    539000   294.78915     -7913.35        0             -6508.2919     -184.21281      24769.497    
SHAKE stats (type/ave/delta/count) on step 540000
Bond:   1   1.00002   1.19149e-06     1600
Angle:  1   109.47    9.57944e-05      800
    540000   294.13157     -7904.3692      0             -6502.4454      376.04114      24557.761    
    541000   296.49825     -7969.0781      0             -6555.874      -168.96255      24684.433    
    542000   301.07438     -7956.3318      0             -6521.3164     -269.40085      24594.447    
    543000   304.38929     -7960.4951      0             -6509.6797      73.401873      24633.405    
    544000   296.18283     -7924.4742      0             -6512.7734      199.0966       24482.709    
    545000   296.95844     -7948.1494      0             -6532.7519      282.57638      24614.701    
    546000   301.39902     -8021.8136      0             -6585.2509     -117.09367      24628.605    
    547000   296.81431     -7944.4336      0             -6529.723       564.96834      24964.566    
    548000   300.42836     -7949.276       0             -6517.3397     -216.8538       24884.232    
    549000   297.92973     -7957.2363      0             -6537.2093     -124.09424      24892.796    
SHAKE stats (type/ave/delta/count) on step 550000
Bond:   1   0.999977  1.26415e-06     1600
Angle:  1   109.47    9.87722e-05      800
    550000   302.80481     -7960.0446      0             -6516.7814     -565.94647      24635.172    
    551000   293.30803     -7918.7573      0             -6520.7588      32.284029      24581.965    
    552000   304.81798     -7972.5287      0             -6519.6701      118.65163      24600.163    
    553000   299.02875     -7939.1156      0             -6513.8503      167.23092      24820.33     
    554000   298.09501     -7895.704       0             -6474.8892     -497.61539      24755.612    
    555000   298.75344     -7945.2017      0             -6521.2486     -268.4212       24805.25     
    556000   290.36834     -7907.8903      0             -6523.9032      305.57387      24506.712    
    557000   301.63992     -7924.0638      0             -6486.3528     -411.20427      24721.777    
    558000   299.03338     -7941.3583      0             -6516.071       11.131049      24904.456    
    559000   301.00935     -7937.5895      0             -6502.884      -273.64135      24792.568    
SHAKE stats (type/ave/delta/count) on step 560000
[...]
    731000   297.77955     -7933.1101      0             -6513.7988      488.84345      24725.313    
    732000   300.44586     -7951.2999      0             -6519.2802      160.36245      24971.619    
    733000   295.94654     -7894.338       0             -6483.7634      1.8772169      24965.19     
    734000   298.05245     -7940.0665      0             -6519.4545     -319.90806      24636.511    
    735000   302.66558     -7945.1719      0             -6502.5723     -236.56576      24309.971    
    736000   297.42512     -7909.046       0             -6491.4241      133.3994       24412.757    
    737000   300.26437     -7943.066       0             -6511.9113      283.30029      24509.347    
    738000   298.40101     -7943.1322      0             -6520.8589     -60.331903      24659.819    
    739000   302.40271     -7954.3052      0             -6512.9585     -95.446445      24556.392    
SHAKE stats (type/ave/delta/count) on step 740000
Bond:   1   0.999991  1.09799e-06     1600
Angle:  1   109.47    8.92309e-05      800
    740000   300.74306     -7937.2492      0             -6503.813      -223.72909      24536.222    
    741000   300.12904     -7940.6036      0             -6510.094       118.20144      24759.642    
    742000   296.58775     -7943.3453      0             -6529.7146     -621.02737      24470.649    
    743000   291.38318     -7956.6258      0             -6567.8017      115.68691      24411.204    
    744000   296.68023     -7963.9557      0             -6549.8842     -328.75876      24545.69     
    745000   301.8727      -7999.1266      0             -6560.3061      237.59576      24704.224    
    746000   298.40567     -7947.2509      0             -6524.9554     -114.68112      24841.854    
    747000   307.8248      -7989.35        0             -6522.16       -392.19519      24757.042    
    748000   301.69885     -7974.0072      0             -6536.0154     -138.79232      24432.221    
    749000   299.40466     -7953.3611      0             -6526.3041      459.18379      24477.143    
SHAKE stats (type/ave/delta/count) on step 750000
Bond:   1   0.999999  1.0863e-06      1600
Angle:  1   109.47    9.85206e-05      800
    750000   301.25892     -7976.1357      0             -6540.2407     -19.205251      24568.544    
    751000   303.24505     -7981.4336      0             -6536.0721     -12.794459      24654.986    
    752000   305.63097     -7980.8579      0             -6524.1243      246.52162      24900.586    
    753000   298.00544     -7952.5275      0             -6532.1396     -180.50717      24812.224    
    754000   297.09209     -7986.6686      0             -6570.634      -737.91085      24630.861    
    755000   295.00944     -7925.6198      0             -6519.5118      22.98897       24684.327    
    756000   305.67708     -7972.2765      0             -6515.3232     -785.93955      24803.443    
    757000   292.20948     -7917.3917      0             -6524.6292      135.17678      24965.625    
    758000   296.22847     -7907.7322      0             -6495.8139     -62.271323      24767.939    
    759000   300.25959     -7984.0628      0             -6552.931       116.83035      24481.286    
SHAKE stats (type/ave/delta/count) on step 760000
Bond:   1   1         1.03982e-06     1600
Angle:  1   109.47    9.61917e-05      800
    760000   294.31219     -7927.823       0             -6525.0383      74.928447      24661.957    
    761000   298.52155     -7889.1515      0             -6466.3037     -150.56179      24583.172    
    762000   290.09195     -7892.6077      0             -6509.9381      340.93129      24734.066    
    763000   291.22839     -7902.1723      0             -6514.086      -91.276825      24811.359    
    764000   298.94242     -7933.3858      0             -6508.532       373.42449      25024.292    
    765000   300.69115     -7952.8327      0             -6519.6438     -38.593026      24868.848    
    766000   295.53968     -7939.5894      0             -6530.9541      58.742964      24640.015    
    767000   307.51205     -7980.0187      0             -6514.3193     -3.3880272      24828.977    
    768000   295.71241     -7912.3791      0             -6502.9205      23.88074       24731.712    
    769000   297.64339     -7910.4247      0             -6491.7625     -525.64483      24390.762    
SHAKE stats (type/ave/delta/count) on step 770000
Bond:   1   1.00001   1.04767e-06     1600
Angle:  1   109.47    9.67849e-05      800
    770000   300.03794     -7937.032       0             -6506.9566      228.5094       24509.033    
    771000   291.51082     -7864.5244      0             -6475.0919     -37.064896      24711.109    
    772000   302.89425     -7967.61        0             -6523.9205      29.788884      24698.468    
    773000   300.44211     -7979.1722      0             -6547.1704     -168.37778      24640.372    
    774000   299.10858     -7946.8631      0             -6521.2174     -645.38683      24516.417    
    775000   300.44273     -7973.7274      0             -6541.7226     -30.722155      24571.982    
    776000   288.60467     -7903.2172      0             -6527.6363     -272.27797      24463.052    
    777000   303.79417     -7971.3024      0             -6523.3237     -207.01604      24445.221    
    778000   305.87249     -7991.1648      0             -6533.2801     -92.931668      24445.029    
    779000   302.45311     -7944.7357      0             -6503.1488      21.900288      24217.139    
SHAKE stats (type/ave/delta/count) on step 780000
Bond:   1   1         1.16953e-06     1600
Angle:  1   109.47    9.39185e-05      800
    780000   298.78145     -8014.6288      0             -6590.5422      117.37023      24381.063    
    781000   294.46954     -7978.8698      0             -6575.3352      17.427447      24744.338    
    782000   295.14995     -7936.3181      0             -6529.5404      128.28174      24575.642    
    783000   297.64576     -7934.6496      0             -6515.9761     -257.18227      24627.072    
    784000   290.08377     -7928.9867      0             -6546.356       131.19653      24748.449    
    785000   293.12761     -7932.5111      0             -6535.3725      426.34534      25016.769    
    786000   294.67754     -7916.3484      0             -6511.8224     -42.631657      25009.727    
    787000   302.29781     -7964.4791      0             -6523.6324     -265.78541      24790.73     
    788000   305.92081     -7971.8494      0             -6513.7344      38.293256      24550.212    
    789000   296.50077     -7913.709       0             -6500.4928      143.33919      24719.408    
SHAKE stats (type/ave/delta/count) on step 790000
Bond:   1   1.00001   1.08864e-06     1600
Angle:  1   109.47    9.09612e-05      800
    790000   301.27011     -7953.778       0             -6517.8297      180.51921      24773.16     
    791000   297.1767      -7929.0813      0             -6512.6435      319.58429      24687.663    
    792000   301.306       -7947.6577      0             -6511.5383     -52.640686      24558.143    
    793000   300.43875     -7988.8797      0             -6556.8938      121.83259      24673.142    
    794000   298.13008     -7963.1554      0             -6542.1734      726.39853      24673.336    
    795000   298.22288     -7952.398       0             -6530.9737      296.54301      24600.102    
    796000   291.50131     -7940.3461      0             -6550.9589      455.07644      24705.866    
    797000   298.90314     -7928.0522      0             -6503.3856     -391.74189      24710.554    
    798000   308.1078      -8002.4374      0             -6533.8985     -25.025474      24626.354    
    799000   296.81053     -7914.7632      0             -6500.0706      38.33572       24605.148    
SHAKE stats (type/ave/delta/count) on step 800000
Bond:   1   0.999989  9.84571e-07     1600
Angle:  1   109.47    8.56805e-05      800
    800000   297.28243     -7932.8152      0             -6515.8734     -256.06833      24651.119    
    801000   295.66458     -7922.8721      0             -6513.6415     -189.72623      24316.83     
    802000   296.34057     -7910.5981      0             -6498.1455      449.23684      24487.795    
    803000   304.09078     -7931.1386      0             -6481.7461     -335.27366      24532.287    
    804000   302.2213      -7944.8092      0             -6504.3272      60.523878      24572.21     
    805000   295.72934     -7917.1351      0             -6507.5958      341.07799      24522.086    
    806000   296.13083     -7940.6182      0             -6529.1653      537.16748      24693.636    
    807000   302.19839     -7975.6154      0             -6535.2426      302.90137      24521.857    
    808000   296.15923     -7934.4458      0             -6522.8575      325.18262      24554.032    
    809000   305.36659     -7985.9943      0             -6530.5209     -253.33035      24441.57     
SHAKE stats (type/ave/delta/count) on step 810000
Bond:   1   1         1.66633e-06     1600
Angle:  1   109.47    9.98902e-05      800
    810000   302.25528     -7967.3918      0             -6526.7479      27.543958      24641.705    
    811000   298.84926     -7934.2311      0             -6509.8214     -328.37287      24934.536    
    812000   295.06825     -7896.0733      0             -6489.685       41.224188      24804.843    
    813000   303.66844     -7934.5154      0             -6487.1359      236.43524      24861.631    
    814000   306.5489      -7987.9893      0             -6526.8806     -374.00778      24653.695    
    815000   296.64759     -7927.731       0             -6513.8151      523.2902       24495.832    
    816000   297.52913     -7926.1613      0             -6508.0436     -103.37841      24817.554    
    817000   290.96012     -7893.3315      0             -6506.5238      19.061188      24728.59     
    818000   304.20294     -7996.6689      0             -6546.7418     -230.70144      24490.857    
    819000   304.44266     -7981.3881      0             -6530.3185     -396.34602      24778.677    
SHAKE stats (type/ave/delta/count) on step 820000
Bond:   1   0.999984  1.19312e-06     1600
Angle:  1   109.47    8.95396e-05      800
    820000   293.16452     -7935.779       0             -6538.4645     -386.56885      24591.763    
    821000   300.24937     -7938.9436      0             -6507.8604      120.59092      24789.828    
    822000   294.46467     -7919.5462      0             -6516.0347      319.17915      24479.307    
    823000   300.59853     -7957.92        0             -6525.1726     -145.97685      24412.84     
    824000   298.75304     -7913.351       0             -6489.3998     -470.14474      24600.33     
    825000   293.8317      -7930.3742      0             -6529.8797      137.84987      24447.79     
    826000   305.58488     -7943.183       0             -6486.6691     -125.60234      24811.406    
    827000   298.32477     -7930.482       0             -6508.5721     -300.0173       24758.148    
    828000   295.57223     -7910.4935      0             -6501.703       163.67686      24713.549    
    829000   298.20376     -7945.8143      0             -6524.4812      205.88689      24675.17     
SHAKE stats (type/ave/delta/count) on step 830000
Bond:   1   1.00001   1.06273e-06     1600
Angle:  1   109.47    0.000103879      800
    830000   290.01015     -7892.7343      0             -6510.4545      289.98079      24650.647    
    831000   302.93625     -7937.4745      0             -6493.5848     -95.613802      24813.884    
    832000   290.34544     -7884.2719      0             -6500.394       584.59728      24561.001    
    833000   297.78796     -7913.5872      0             -6494.2359     -58.540299      24500.338    
    834000   301.49431     -7964.5071      0             -6527.4902      159.9902       24560.922    
    835000   295.66937     -7977.2053      0             -6567.9518      381.81888      24512.681    
    836000   300.93884     -7971.6721      0             -6537.3027     -272.78702      24766.181    
    837000   304.17452     -7969.673       0             -6519.8813     -242.46188      24547.112    
    838000   303.58543     -7986.9192      0             -6539.9353      385.6338       24539.775    
    839000   296.86396     -7942.996       0             -6528.0488     -4.6319521      24628.85     
SHAKE stats (type/ave/delta/count) on step 840000
Bond:   1   0.999992  1.05397e-06     1600
Angle:  1   109.47    0.000100845      800
    840000   295.728       -7923.6845      0             -6514.1516     -169.27849      24864.455    
    841000   297.25883     -7954.1803      0             -6537.351       121.07993      24623.487    
    842000   297.4505      -7926.3067      0             -6508.5638      46.720804      24667.223    
    843000   300.00988     -7964.5641      0             -6534.6224     -100.528        24595.188    
    844000   304.63405     -7959.9819      0             -6507.9999     -516.78491      24756.2      
    845000   293.32745     -7912.2565      0             -6514.1654      24.207999      24900.436    
    846000   290.99438     -7918.1238      0             -6531.1528      476.21192      24706.704    
    847000   299.9682      -7961.9034      0             -6532.1604     -463.7882       24590.191    
    848000   297.07626     -7944.7002      0             -6528.741       351.39119      24501.082    
    849000   296.13936     -7925.6139      0             -6514.1203      121.02959      24526.564    
SHAKE stats (type/ave/delta/count) on step 850000
Bond:   1   1.00001   1.37978e-06     1600
Angle:  1   109.47    9.9526e-05       800
    850000   302.58124     -7963.0068      0             -6520.8092      179.3905       24533.058    
    851000   288.23193     -7926.661       0             -6552.8568      337.88865      24535.639    
    852000   299.6794      -7936.9627      0             -6508.5962      252.557        24723.492    
    853000   296.25367     -7880.1872      0             -6468.1488     -606.1167       24761.507    
    854000   294.7895      -7912.7991      0             -6507.7394     -3.021111       24644.293    
    855000   295.56072     -7876.7374      0             -6468.0018      484.17887      24787.566    
    856000   294.60877     -7925.01        0             -6520.8117      30.049282      24653.756    
    857000   296.91666     -7967.6808      0             -6552.4824      368.48732      24697.534    
    858000   296.35123     -7904.9144      0             -6492.411      -16.337057      24823.817    
    859000   292.49778     -7937.5844      0             -6543.4478     -129.89495      24904.123    
SHAKE stats (type/ave/delta/count) on step 860000
Bond:   1   0.999995  1.10922e-06     1600
Angle:  1   109.47    8.67735e-05      800
    860000   298.85226     -7939.6558      0             -6515.2317     -131.3851       24862.466    
    861000   296.41282     -7922.0766      0             -6509.2796     -164.76684      24731.486    
    862000   295.11822     -7910.4263      0             -6503.7998      330.90693      24906.552    
    863000   299.52835     -7935.9733      0             -6508.3267      350.44754      24695.563    
    864000   304.53455     -7961.6652      0             -6510.1575      33.369801      25192.77     
    865000   297.12443     -7914.5189      0             -6498.3302      384.56389      25012.059    
    866000   288.82845     -7932.8101      0             -6556.1627      286.75221      24642.766    
    867000   293.19248     -7950.9578      0             -6553.51       -25.616186      24790.844    
    868000   295.00634     -7926.0458      0             -6519.9526      52.526354      24481.66     
    869000   291.90159     -7920.6572      0             -6529.3622     -10.962461      24357.47     
SHAKE stats (type/ave/delta/count) on step 870000
Bond:   1   0.999991  1.30018e-06     1600
Angle:  1   109.47    9.99203e-05      800
    870000   304.23931     -7932.7697      0             -6482.6692     -221.94749      24571.471    
    871000   294.55076     -7910.1237      0             -6506.2019     -311.50759      24307.874    
    872000   297.55899     -7944.1622      0             -6525.9023      126.02091      24490.761    
    873000   297.2155      -7935.7634      0             -6519.1406     -100.62407      24419.484    
    874000   294.68708     -7899.6795      0             -6495.108       487.92526      24646.322    
    875000   299.16699     -7977.9456      0             -6552.0213      67.274608      24640.773    
    876000   303.51837     -7964.0664      0             -6517.4022      117.66542      24692.482    
    877000   297.83183     -7964.2401      0             -6544.6797      3.6644817      24878.474    
    878000   300.29224     -7962.4656      0             -6531.1781     -63.358603      24902.038    
    879000   296.51518     -7948.7479      0             -6535.4631     -59.699326      24965.5      
SHAKE stats (type/ave/delta/count) on step 880000
Bond:   1   0.999988  1.23039e-06     1600
Angle:  1   109.47    8.76888e-05      800
    880000   298.47451     -7920.8846      0             -6498.2609     -306.4733       24720.036    
    881000   301.8694      -7922.7559      0             -6483.9511      156.37407      24621.904    
    882000   303.76065     -7936.686       0             -6488.867      -104.48265      24680.386    
    883000   296.92045     -7922.192       0             -6506.9756      21.710213      24514.706    
    884000   298.62266     -7975.2529      0             -6551.9231      126.27153      24591.105    
    885000   293.4829      -7942.1973      0             -6543.3652      66.56666       24643.212    
    886000   296.4694      -7912.8492      0             -6499.7826     -61.036796      24717.404    
    887000   295.23248     -7908.7025      0             -6501.5315     -29.076453      24672.855    
    888000   302.31065     -7955.8372      0             -6514.9293     -95.800541      24662.75     
    889000   294.17736     -7905.9452      0             -6503.8031     -366.60416      24813.516    
SHAKE stats (type/ave/delta/count) on step 890000
Bond:   1   0.999986  1.00501e-06     1600
Angle:  1   109.47    9.66582e-05      800
    890000   290.12437     -7868.1013      0             -6485.2771     -313.09941      24816.024    
    891000   301.9352      -7975.975       0             -6536.8567     -307.8582       24786.125    
    892000   300.65919     -7949.9303      0             -6516.8938     -411.69078      24759.944    
    893000   301.76008     -7951.7664      0             -6513.4828      553.49705      24794.648    
    894000   302.19637     -7981.058       0             -6540.6948     -29.222729      24802.605    
    895000   294.61947     -7917.4871      0             -6513.2378      115.2426       24596.256    
    896000   288.40467     -7881.7169      0             -6507.0893      137.06856      24546.491    
    897000   300.0848      -7922.6887      0             -6492.3899     -39.94859       24381.584    
    898000   300.47003     -7928.5915      0             -6496.4566      285.03258      24480.886    
    899000   301.4428      -7968.4994      0             -6531.728      -4.541645       24491.972    
SHAKE stats (type/ave/delta/count) on step 900000
Bond:   1   0.999991  1.43648e-06     1600
Angle:  1   109.47    0.000121006      800
    900000   306.5986      -7968.427       0             -6507.0815     -226.72114      24651.085    
    901000   294.06813     -7952.8602      0             -6551.2388      130.39661      24679.236    
    902000   292.88252     -7895.4631      0             -6499.4927     -275.41345      24695.141    
    903000   296.93279     -7910.9435      0             -6495.6682     -88.940898      24594.056    
