LAMMPS Description # full

56 atoms
49 bonds
42 angles
35 dihedrals
0 impropers

2 atom types
2 bond types
2 angle types
1 dihedral types
0 improper types

-0.91 7.04 xlo xhi # 0.00 7.94
0.08 8.02 ylo yhi # 0.00 7.94
-0.92 7.02 zlo zhi # 0.00 7.94

Masses

1 15.035 # CH3 n-Butane C 83
2 14.027 # CH2 n-Butane C 86

Pair Coeffs

1 0.1750 3.9050
2 0.1180 3.9050

Bond Coeffs

1  260.0 1.526
2  260.0 1.526

Angle Coeffs

1 63.0 112.4
2 63.0 112.4

Dihedral Coeffs

1  0.0 0.0 4.0 0.0

Atoms

1 1 1 0.0000 3.847 1.507 6.129
2 1 2 0.0000 3.150 2.334 5.052
3 1 2 0.0000 3.448 1.677 3.708
4 1 2 0.0000 3.235 2.646 2.549
5 1 2 0.0000 2.333 3.770 3.052
6 1 2 0.0000 1.421 3.192 4.130
7 1 2 0.0000 1.298 4.230 5.243
8 1 1 0.0000 1.189 5.608 4.597
9 2 1 0.0000 3.184 5.582 3.769
10 2 2 0.0000 4.196 5.761 2.641
11 2 2 0.0000 3.545 5.249 1.359
12 2 2 0.0000 4.066 5.990 0.131
13 2 2 0.0000 4.709 4.955 -0.789
14 2 2 0.0000 4.140 5.155 -2.190
15 2 2 0.0000 2.831 5.927 -2.057
16 2 1 0.0000 3.149 7.418 -2.131
17 3 1 0.0000 2.088 1.140 1.655
18 3 2 0.0000 2.436 -0.298 1.282
19 3 2 0.0000 2.174 -0.458 -0.212
20 3 2 0.0000 0.681 -0.424 -0.528
21 3 2 0.0000 0.528 -0.590 -2.037
22 3 2 0.0000 0.549 0.799 -2.668
23 3 2 0.0000 1.140 0.667 -4.068
24 3 1 0.0000 2.443 -0.121 -3.962
25 4 1 0.0000 -1.463 1.933 5.382
26 4 2 0.0000 -0.268 2.875 5.507
27 4 2 0.0000 0.289 2.717 6.919
28 4 2 0.0000 1.793 2.977 6.961
29 4 2 0.0000 2.162 3.293 8.407
30 4 2 0.0000 3.662 3.062 8.570
31 4 2 0.0000 3.948 1.601 8.239
32 4 1 0.0000 4.079 0.833 9.551
33 5 1 0.0000 5.143 6.480 4.417
34 5 2 0.0000 6.031 5.247 4.282
35 5 2 0.0000 6.509 4.874 5.682
36 5 2 0.0000 6.858 6.111 6.504
37 5 2 0.0000 6.372 7.330 5.726
38 5 2 0.0000 5.043 7.773 6.331
39 5 2 0.0000 5.290 8.122 7.796
40 5 1 0.0000 6.783 8.383 7.976
41 6 1 0.0000 0.739 4.688 2.282
42 6 2 0.0000 0.128 3.336 2.638
43 6 2 0.0000 0.283 2.431 1.420
44 6 2 0.0000 -1.011 2.348 0.614
45 6 2 0.0000 -2.088 1.781 1.535
46 6 2 0.0000 -1.901 2.405 2.915
47 6 2 0.0000 -2.734 3.683 2.966
48 6 1 0.0000 -3.384 3.772 4.344
49 7 1 0.0000 6.867 8.081 1.999
50 7 2 0.0000 6.094 6.833 1.583
51 7 2 0.0000 7.111 5.820 1.063
52 7 2 0.0000 8.533 6.369 1.126
53 7 2 0.0000 8.749 6.921 2.532
54 7 2 0.0000 7.461 6.709 3.323
55 7 2 0.0000 7.092 8.036 3.979
56 7 1 0.0000 5.628 8.329 3.666

Bonds

1 1 1 2
2 2 3 4
3 2 5 6
4 1 7 8
5 2 2 3
6 2 4 5
7 2 6 7
8 1 9 10
9 2 11 12
10 2 13 14
11 1 15 16
12 2 10 11
13 2 12 13
14 2 14 15
15 1 17 18
16 2 19 20
17 2 21 22
18 1 23 24
19 2 18 19
20 2 20 21
21 2 22 23
22 1 25 26
23 2 27 28
24 2 29 30
25 1 31 32
26 2 26 27
27 2 28 29
28 2 30 31
29 1 33 34
30 2 35 36
31 2 37 38
32 1 39 40
33 2 34 35
34 2 36 37
35 2 38 39
36 1 41 42
37 2 43 44
38 2 45 46
39 1 47 48
40 2 42 43
41 2 44 45
42 2 46 47
43 1 49 50
44 2 51 52
45 2 53 54
46 1 55 56
47 2 50 51
48 2 52 53
49 2 54 55

Angles

1 1 1 2 3
2 2 4 3 2
3 2 3 4 5
4 2 6 5 4
5 2 5 6 7
6 1 8 7 6
7 1 9 10 11
8 2 12 11 10
9 2 11 12 13
10 2 14 13 12
11 2 13 14 15
12 1 16 15 14
13 1 17 18 19
14 2 20 19 18
15 2 19 20 21
16 2 22 21 20
17 2 21 22 23
18 1 24 23 22
19 1 25 26 27
20 2 28 27 26
21 2 27 28 29
22 2 30 29 28
23 2 29 30 31
24 1 32 31 30
25 1 33 34 35
26 2 36 35 34
27 2 35 36 37
28 2 38 37 36
29 2 37 38 39
30 1 40 39 38
31 1 41 42 43
32 2 44 43 42
33 2 43 44 45
34 2 46 45 44
35 2 45 46 47
36 1 48 47 46
37 1 49 50 51
38 2 52 51 50
39 2 51 52 53
40 2 54 53 52
41 2 53 54 55
42 1 56 55 54

Dihedrals

1 1 1 2 3 4
2 1 2 3 4 5
3 1 3 4 5 6
4 1 4 5 6 7
5 1 5 6 7 8
6 1 9 10 11 12
7 1 10 11 12 13
8 1 11 12 13 14
9 1 12 13 14 15
10 1 13 14 15 16
11 1 17 18 19 20
12 1 18 19 20 21
13 1 19 20 21 22
14 1 20 21 22 23
15 1 21 22 23 24
16 1 25 26 27 28
17 1 26 27 28 29
18 1 27 28 29 30
19 1 28 29 30 31
20 1 29 30 31 32
21 1 33 34 35 36
22 1 34 35 36 37
23 1 35 36 37 38
24 1 36 37 38 39
25 1 37 38 39 40
26 1 41 42 43 44
27 1 42 43 44 45
28 1 43 44 45 46
29 1 44 45 46 47
30 1 45 46 47 48
31 1 49 50 51 52
32 1 50 51 52 53
33 1 51 52 53 54
34 1 52 53 54 55
35 1 53 54 55 56

