LAMMPS Description # full

88 atoms
77 bonds
66 angles
55 dihedrals
0 impropers

2 atom types
2 bond types
2 angle types
1 dihedral types
0 improper types

-7.26 14.74 xlo xhi # 0.00 9.29
-6.68 15.32 ylo yhi # 0.00 9.29
-6.32 15.68 zlo zhi # 0.00 9.29

Masses

1 15.035 # CH3 n-Butane C 83
2 14.027 # CH2 n-Butane C 86

Pair Coeffs

1 0.1750 3.9050
2 0.1180 3.9050

Bond Coeffs

1  260.0 1.526
2  260.0 1.526

Angle Coeffs

1 63.0 112.4
2 63.0 112.4

Dihedral Coeffs

1  0.0 0.0 4.0 0.0

Atoms

1 1 1 0.0000 2.540 4.723 6.511
2 1 2 0.0000 2.623 4.123 5.113
3 1 2 0.0000 2.574 2.613 5.265
4 1 2 0.0000 3.125 1.913 4.042
5 1 2 0.0000 2.410 0.592 3.917
6 1 2 0.0000 3.312 -0.476 4.469
7 1 2 0.0000 3.193 -0.445 5.986
8 1 1 0.0000 2.882 0.968 6.404
9 2 1 0.0000 8.126 -1.066 7.039
10 2 2 0.0000 7.985 -0.624 8.491
11 2 2 0.0000 8.328 0.853 8.551
12 2 2 0.0000 9.641 1.091 9.262
13 2 2 0.0000 10.012 2.537 9.054
14 2 2 0.0000 10.618 2.667 7.684
15 2 2 0.0000 9.761 3.640 6.887
16 2 1 0.0000 8.506 3.912 7.674
17 3 1 0.0000 7.152 5.474 6.484
18 3 2 0.0000 8.650 5.350 6.237
19 3 2 0.0000 8.899 5.693 4.779
20 3 2 0.0000 8.155 4.758 3.853
21 3 2 0.0000 6.685 4.895 4.157
22 3 2 0.0000 6.184 6.133 3.469
23 3 2 0.0000 5.277 5.697 2.328
24 3 1 0.0000 6.146 5.291 1.167
25 4 1 0.0000 1.107 1.794 2.591
26 4 2 0.0000 -0.290 1.191 2.517
27 4 2 0.0000 -0.983 1.489 3.835
28 4 2 0.0000 -0.324 2.639 4.562
29 4 2 0.0000 -1.322 3.178 5.554
30 4 2 0.0000 -1.490 2.155 6.643
31 4 2 0.0000 -0.787 0.882 6.197
32 4 1 0.0000 0.668 1.202 5.978
33 5 1 0.0000 3.652 6.710 1.656
34 5 2 0.0000 2.530 5.900 2.293
35 5 2 0.0000 2.212 4.749 1.355
36 5 2 0.0000 2.703 5.025 -0.049
37 5 2 0.0000 3.040 3.698 -0.678
38 5 2 0.0000 3.709 2.847 0.364
39 5 2 0.0000 2.658 2.464 1.396
40 5 1 0.0000 3.031 1.122 1.969
41 6 1 0.0000 6.307 7.946 0.621
42 6 2 0.0000 4.952 7.350 0.261
43 6 2 0.0000 4.934 7.140 -1.242
44 6 2 0.0000 5.590 8.290 -1.972
45 6 2 0.0000 6.052 9.280 -0.933
46 6 2 0.0000 4.899 9.554 -0.010
47 6 2 0.0000 5.470 9.885 1.361
48 6 1 0.0000 5.148 8.744 2.290
49 7 1 0.0000 4.672 3.745 1.883
50 7 2 0.0000 4.707 3.019 3.222
51 7 2 0.0000 5.531 1.758 3.033
52 7 2 0.0000 5.074 0.652 3.957
53 7 2 0.0000 6.025 0.618 5.127
54 7 2 0.0000 6.286 -0.822 5.469
55 7 2 0.0000 7.122 -1.422 4.348
56 7 1 0.0000 7.164 -0.432 3.213
57 8 1 0.0000 4.742 0.957 7.219
58 8 2 0.0000 4.772 2.445 7.546
59 8 2 0.0000 5.432 3.153 6.375
60 8 2 0.0000 5.296 4.655 6.486
61 8 2 0.0000 5.496 5.022 7.934
62 8 2 0.0000 6.609 4.170 8.477
63 8 2 0.0000 6.047 3.350 9.629
64 8 1 0.0000 5.982 1.911 9.191
65 9 1 0.0000 0.214 5.933 -0.164
66 9 2 0.0000 -0.456 6.809 0.887
67 9 2 0.0000 -1.189 5.887 1.845
68 9 2 0.0000 -0.654 4.474 1.776
69 9 2 0.0000 -1.270 3.816 0.568
70 9 2 0.0000 -1.163 2.328 0.747
71 9 2 0.0000 -2.115 1.924 1.862
72 9 1 0.0000 -2.040 2.968 2.944
73 10 1 0.0000 3.121 6.826 4.008
74 10 2 0.0000 4.471 6.745 4.708
75 10 2 0.0000 4.263 7.187 6.146
76 10 2 0.0000 2.967 6.653 6.710
77 10 2 0.0000 1.876 6.976 5.721
78 10 2 0.0000 0.999 8.034 6.329
79 10 2 0.0000 -0.101 8.358 5.329
80 10 1 0.0000 0.523 9.084 4.166
81 11 1 0.0000 2.483 10.626 9.040
82 11 2 0.0000 1.887 9.652 8.031
83 11 2 0.0000 2.765 8.413 8.024
84 11 2 0.0000 2.452 7.503 9.189
85 11 2 0.0000 1.192 8.016 9.838
86 11 2 0.0000 1.516 8.366 11.263
87 11 2 0.0000 0.828 7.347 12.160
88 11 1 0.0000 -0.657 7.594 12.096

Bonds

1 1 1 2
2 2 3 4
3 2 5 6
4 1 7 8
5 2 2 3
6 2 4 5
7 2 6 7
8 1 9 10
9 2 11 12
10 2 13 14
11 1 15 16
12 2 10 11
13 2 12 13
14 2 14 15
15 1 17 18
16 2 19 20
17 2 21 22
18 1 23 24
19 2 18 19
20 2 20 21
21 2 22 23
22 1 25 26
23 2 27 28
24 2 29 30
25 1 31 32
26 2 26 27
27 2 28 29
28 2 30 31
29 1 33 34
30 2 35 36
31 2 37 38
32 1 39 40
33 2 34 35
34 2 36 37
35 2 38 39
36 1 41 42
37 2 43 44
38 2 45 46
39 1 47 48
40 2 42 43
41 2 44 45
42 2 46 47
43 1 49 50
44 2 51 52
45 2 53 54
46 1 55 56
47 2 50 51
48 2 52 53
49 2 54 55
50 1 57 58
51 2 59 60
52 2 61 62
53 1 63 64
54 2 58 59
55 2 60 61
56 2 62 63
57 1 65 66
58 2 67 68
59 2 69 70
60 1 71 72
61 2 66 67
62 2 68 69
63 2 70 71
64 1 73 74
65 2 75 76
66 2 77 78
67 1 79 80
68 2 74 75
69 2 76 77
70 2 78 79
71 1 81 82
72 2 83 84
73 2 85 86
74 1 87 88
75 2 82 83
76 2 84 85
77 2 86 87

Angles

1 1 1 2 3
2 2 4 3 2
3 2 3 4 5
4 2 6 5 4
5 2 5 6 7
6 1 8 7 6
7 1 9 10 11
8 2 12 11 10
9 2 11 12 13
10 2 14 13 12
11 2 13 14 15
12 1 16 15 14
13 1 17 18 19
14 2 20 19 18
15 2 19 20 21
16 2 22 21 20
17 2 21 22 23
18 1 24 23 22
19 1 25 26 27
20 2 28 27 26
21 2 27 28 29
22 2 30 29 28
23 2 29 30 31
24 1 32 31 30
25 1 33 34 35
26 2 36 35 34
27 2 35 36 37
28 2 38 37 36
29 2 37 38 39
30 1 40 39 38
31 1 41 42 43
32 2 44 43 42
33 2 43 44 45
34 2 46 45 44
35 2 45 46 47
36 1 48 47 46
37 1 49 50 51
38 2 52 51 50
39 2 51 52 53
40 2 54 53 52
41 2 53 54 55
42 1 56 55 54
43 1 57 58 59
44 2 60 59 58
45 2 59 60 61
46 2 62 61 60
47 2 61 62 63
48 1 64 63 62
49 1 65 66 67
50 2 68 67 66
51 2 67 68 69
52 2 70 69 68
53 2 69 70 71
54 1 72 71 70
55 1 73 74 75
56 2 76 75 74
57 2 75 76 77
58 2 78 77 76
59 2 77 78 79
60 1 80 79 78
61 1 81 82 83
62 2 84 83 82
63 2 83 84 85
64 2 86 85 84
65 2 85 86 87
66 1 88 87 86

Dihedrals

1 1 1 2 3 4
2 1 2 3 4 5
3 1 3 4 5 6
4 1 4 5 6 7
5 1 5 6 7 8
6 1 9 10 11 12
7 1 10 11 12 13
8 1 11 12 13 14
9 1 12 13 14 15
10 1 13 14 15 16
11 1 17 18 19 20
12 1 18 19 20 21
13 1 19 20 21 22
14 1 20 21 22 23
15 1 21 22 23 24
16 1 25 26 27 28
17 1 26 27 28 29
18 1 27 28 29 30
19 1 28 29 30 31
20 1 29 30 31 32
21 1 33 34 35 36
22 1 34 35 36 37
23 1 35 36 37 38
24 1 36 37 38 39
25 1 37 38 39 40
26 1 41 42 43 44
27 1 42 43 44 45
28 1 43 44 45 46
29 1 44 45 46 47
30 1 45 46 47 48
31 1 49 50 51 52
32 1 50 51 52 53
33 1 51 52 53 54
34 1 52 53 54 55
35 1 53 54 55 56
36 1 57 58 59 60
37 1 58 59 60 61
38 1 59 60 61 62
39 1 60 61 62 63
40 1 61 62 63 64
41 1 65 66 67 68
42 1 66 67 68 69
43 1 67 68 69 70
44 1 68 69 70 71
45 1 69 70 71 72
46 1 73 74 75 76
47 1 74 75 76 77
48 1 75 76 77 78
49 1 76 77 78 79
50 1 77 78 79 80
51 1 81 82 83 84
52 1 82 83 84 85
53 1 83 84 85 86
54 1 84 85 86 87
55 1 85 86 87 88

