LAMMPS Description # full

56 atoms
49 bonds
42 angles
35 dihedrals
0 impropers

2 atom types
2 bond types
2 angle types
1 dihedral types
0 improper types

0 7.9426 xlo xhi
0 7.9426 ylo yhi
0 7.9426 zlo zhi

Masses

1 15.0350 # CH3 n-Butane C 83 #
2 14.0270 # CH2 n-Butane C 86 #

Pair Coeffs

1 0.1750 3.9050
2 0.1180 3.9050

Bond Coeffs

1 260.0000 1.5260
2 260.0000 1.5260

Angle Coeffs

1 63.0000 112.4000
2 63.0000 112.4000

Dihedral Coeffs

1 0.0000 0.0000 4.0000 0.0000

Atoms

1 1 1 0.0000 5.3522 1.3209 5.7261
2 1 2 0.0000 5.8802 0.3014 6.7313
3 1 2 0.0000 5.5432 -1.0862 6.1931
4 1 2 0.0000 4.6003 -1.0100 4.9956
5 1 2 0.0000 3.5741 0.0805 5.2896
6 1 2 0.0000 3.7312 0.4917 6.7507
7 1 2 0.0000 3.5761 2.0078 6.8278
8 1 1 0.0000 2.3026 2.3933 6.0807
9 2 1 0.0000 -2.5047 0.1795 -4.5120
10 2 2 0.0000 -1.5990 -0.9156 -3.9559
11 2 2 0.0000 -0.5367 -0.2359 -3.0967
12 2 2 0.0000 0.8345 -0.8780 -3.2872
13 2 2 0.0000 0.9898 -1.1937 -4.7721
14 2 2 0.0000 2.4249 -0.8661 -5.1743
15 2 2 0.0000 2.4566 -0.6938 -6.6902
16 2 1 0.0000 3.8990 -0.8661 -7.1575
17 3 1 0.0000 3.9501 4.8099 7.6579
18 3 2 0.0000 3.9381 5.4245 6.2612
19 3 2 0.0000 2.4785 5.6280 5.8653
20 3 2 0.0000 1.6560 4.3613 6.0828
21 3 2 0.0000 1.9367 3.8709 7.5004
22 3 2 0.0000 0.9408 2.7595 7.8189
23 3 2 0.0000 0.2192 2.3949 6.5246
24 3 1 0.0000 0.6856 1.0066 6.0960
25 4 1 0.0000 1.3831 0.6324 -0.0034
26 4 2 0.0000 2.5954 1.3780 0.5472
27 4 2 0.0000 2.4787 1.3770 2.0688
28 4 2 0.0000 1.1132 0.8726 2.5267
29 4 2 0.0000 0.0691 1.4510 1.5759
30 4 2 0.0000 -1.2865 1.3908 2.2740
31 4 2 0.0000 -1.1903 2.2197 3.5516
32 4 1 0.0000 0.2220 2.7905 3.6420
33 5 1 0.0000 -1.9521 4.6465 3.5266
34 5 2 0.0000 -0.4329 4.7903 3.5149
35 5 2 0.0000 0.0438 4.4757 2.0998
36 5 2 0.0000 1.4471 3.8761 2.1006
37 5 2 0.0000 2.3904 4.9179 1.5059
38 5 2 0.0000 3.8102 4.5704 1.9440
39 5 2 0.0000 4.2635 5.6324 2.9417
40 5 1 0.0000 5.3410 6.4819 2.2739
41 6 1 0.0000 -1.7416 5.8494 0.2081
42 6 2 0.0000 -1.3036 4.7372 -0.7405
43 6 2 0.0000 -0.3598 5.3583 -1.7663
44 6 2 0.0000 0.2223 6.6776 -1.2670
45 6 2 0.0000 1.3682 6.3419 -0.3167
46 6 2 0.0000 0.7648 5.9803 1.0375
47 6 2 0.0000 -0.3936 6.9377 1.3025
48 6 1 0.0000 -0.5051 7.8884 0.1140
49 7 1 0.0000 2.2517 4.7766 3.9627
50 7 2 0.0000 2.4490 3.2813 3.7307
51 7 2 0.0000 3.7797 2.8928 4.3686
52 7 2 0.0000 4.7489 2.3182 3.3394
53 7 2 0.0000 4.1449 2.5568 1.9585
54 7 2 0.0000 5.2168 3.1973 1.0813
55 7 2 0.0000 5.4605 2.2723 -0.1076
56 7 1 0.0000 5.6376 3.1364 -1.3529

Bonds

1 1 1 2
2 2 3 4
3 2 5 6
4 1 7 8
5 2 2 3
6 2 4 5
7 2 6 7
8 1 9 10
9 2 11 12
10 2 13 14
11 1 15 16
12 2 10 11
13 2 12 13
14 2 14 15
15 1 17 18
16 2 19 20
17 2 21 22
18 1 23 24
19 2 18 19
20 2 20 21
21 2 22 23
22 1 25 26
23 2 27 28
24 2 29 30
25 1 31 32
26 2 26 27
27 2 28 29
28 2 30 31
29 1 33 34
30 2 35 36
31 2 37 38
32 1 39 40
33 2 34 35
34 2 36 37
35 2 38 39
36 1 41 42
37 2 43 44
38 2 45 46
39 1 47 48
40 2 42 43
41 2 44 45
42 2 46 47
43 1 49 50
44 2 51 52
45 2 53 54
46 1 55 56
47 2 50 51
48 2 52 53
49 2 54 55

Angles

1 1 1 2 3
2 2 4 3 2
3 2 3 4 5
4 2 6 5 4
5 2 5 6 7
6 1 8 7 6
7 1 9 10 11
8 2 12 11 10
9 2 11 12 13
10 2 14 13 12
11 2 13 14 15
12 1 16 15 14
13 1 17 18 19
14 2 20 19 18
15 2 19 20 21
16 2 22 21 20
17 2 21 22 23
18 1 24 23 22
19 1 25 26 27
20 2 28 27 26
21 2 27 28 29
22 2 30 29 28
23 2 29 30 31
24 1 32 31 30
25 1 33 34 35
26 2 36 35 34
27 2 35 36 37
28 2 38 37 36
29 2 37 38 39
30 1 40 39 38
31 1 41 42 43
32 2 44 43 42
33 2 43 44 45
34 2 46 45 44
35 2 45 46 47
36 1 48 47 46
37 1 49 50 51
38 2 52 51 50
39 2 51 52 53
40 2 54 53 52
41 2 53 54 55
42 1 56 55 54

Dihedrals

1 1 1 2 3 4
2 1 2 3 4 5
3 1 3 4 5 6
4 1 4 5 6 7
5 1 5 6 7 8
6 1 9 10 11 12
7 1 10 11 12 13
8 1 11 12 13 14
9 1 12 13 14 15
10 1 13 14 15 16
11 1 17 18 19 20
12 1 18 19 20 21
13 1 19 20 21 22
14 1 20 21 22 23
15 1 21 22 23 24
16 1 25 26 27 28
17 1 26 27 28 29
18 1 27 28 29 30
19 1 28 29 30 31
20 1 29 30 31 32
21 1 33 34 35 36
22 1 34 35 36 37
23 1 35 36 37 38
24 1 36 37 38 39
25 1 37 38 39 40
26 1 41 42 43 44
27 1 42 43 44 45
28 1 43 44 45 46
29 1 44 45 46 47
30 1 45 46 47 48
31 1 49 50 51 52
32 1 50 51 52 53
33 1 51 52 53 54
34 1 52 53 54 55
35 1 53 54 55 56

