LAMMPS Description # full

56 atoms
49 bonds
42 angles
35 dihedrals
0 impropers

2 atom types
2 bond types
2 angle types
1 dihedral types
0 improper types

0 7.9426 xlo xhi
0 7.9426 ylo yhi
0 7.9426 zlo zhi

Masses

1 15.0350 # CH3 n-Butane C 83 #
2 14.0270 # CH2 n-Butane C 86 #

Pair Coeffs

1 0.1750 3.9050
2 0.1180 3.9050

Bond Coeffs

1 260.0000 1.5260
2 260.0000 1.5260

Angle Coeffs

1 63.0000 112.4000
2 63.0000 112.4000

Dihedral Coeffs

1 0.0000 0.0000 4.0000 0.0000

Atoms

1 1 1 0.0000 7.9664 1.5408 3.0311
2 1 2 0.0000 7.1315 0.6329 3.9297
3 1 2 0.0000 7.6444 -0.8042 3.9417
4 1 2 0.0000 8.0513 -1.2648 5.3385
5 1 2 0.0000 7.6372 -2.7065 5.6191
6 1 2 0.0000 6.1652 -2.8243 6.0038
7 1 2 0.0000 5.6896 -4.2737 6.0464
8 1 1 0.0000 6.4452 -5.1628 5.0629
9 2 1 0.0000 -3.3599 1.2302 3.3273
10 2 2 0.0000 -2.5394 2.2914 2.5997
11 2 2 0.0000 -2.9914 2.4868 1.1554
12 2 2 0.0000 -1.8275 2.4356 0.1698
13 2 2 0.0000 -1.2093 3.8096 -0.0719
14 2 2 0.0000 -0.2529 4.2214 1.0437
15 2 2 0.0000 -0.4929 3.4409 2.3329
16 2 1 0.0000 -1.0890 4.3101 3.4365
17 3 1 0.0000 0.4909 3.0013 -1.6192
18 3 2 0.0000 1.0846 3.4468 -0.2859
19 3 2 0.0000 2.4531 2.8253 -0.0221
20 3 2 0.0000 2.3764 1.6305 0.9242
21 3 2 0.0000 2.7660 1.9950 2.3538
22 3 2 0.0000 1.8619 3.0722 2.9463
23 3 2 0.0000 1.9105 3.0980 4.4713
24 3 1 0.0000 1.9076 4.5184 5.0292
25 4 1 0.0000 6.7697 -1.7564 7.5834
26 4 2 0.0000 5.3563 -1.2346 7.8254
27 4 2 0.0000 4.9509 -0.1641 6.8162
28 4 2 0.0000 3.7894 0.6925 7.3121
29 4 2 0.0000 3.6945 2.0259 6.5760
30 4 2 0.0000 4.2096 1.9366 5.1423
31 4 2 0.0000 4.3441 3.3078 4.4863
32 4 1 0.0000 3.9316 4.4421 5.4199
33 5 1 0.0000 1.9085 0.3712 3.2101
34 5 2 0.0000 1.1691 -0.5543 2.2481
35 5 2 0.0000 2.0268 -0.9540 1.0509
36 5 2 0.0000 1.2213 -1.6731 -0.0274
37 5 2 0.0000 2.1103 -2.2859 -1.1058
38 5 2 0.0000 3.5933 -2.0337 -0.8494
39 5 2 0.0000 4.3399 -3.3053 -0.4564
40 5 1 0.0000 5.1814 -3.1198 0.8030
41 6 1 0.0000 3.4384 4.9030 2.0780
42 6 2 0.0000 3.6781 5.2166 3.5521
43 6 2 0.0000 5.1628 5.2937 3.8962
44 6 2 0.0000 5.5622 6.6604 4.4452
45 6 2 0.0000 4.3535 7.5410 4.7488
46 6 2 0.0000 3.0694 6.7318 4.9066
47 6 2 0.0000 1.9154 7.5716 5.4465
48 6 1 0.0000 2.2424 9.0620 5.4706
49 7 1 0.0000 0.6589 0.1105 -0.9720
50 7 2 0.0000 -0.4355 1.0499 -0.4736
51 7 2 0.0000 -0.7500 0.8435 1.0053
52 7 2 0.0000 -2.2040 0.4442 1.2403
53 7 2 0.0000 -2.3731 -0.4352 2.4759
54 7 2 0.0000 -1.7858 -1.8302 2.2815
55 7 2 0.0000 -0.3585 -1.7905 1.7433
56 7 1 0.0000 0.5941 -2.6624 2.5564

Bonds

1 1 1 2
2 2 3 4
3 2 5 6
4 1 7 8
5 2 2 3
6 2 4 5
7 2 6 7
8 1 9 10
9 2 11 12
10 2 13 14
11 1 15 16
12 2 10 11
13 2 12 13
14 2 14 15
15 1 17 18
16 2 19 20
17 2 21 22
18 1 23 24
19 2 18 19
20 2 20 21
21 2 22 23
22 1 25 26
23 2 27 28
24 2 29 30
25 1 31 32
26 2 26 27
27 2 28 29
28 2 30 31
29 1 33 34
30 2 35 36
31 2 37 38
32 1 39 40
33 2 34 35
34 2 36 37
35 2 38 39
36 1 41 42
37 2 43 44
38 2 45 46
39 1 47 48
40 2 42 43
41 2 44 45
42 2 46 47
43 1 49 50
44 2 51 52
45 2 53 54
46 1 55 56
47 2 50 51
48 2 52 53
49 2 54 55

Angles

1 1 1 2 3
2 2 4 3 2
3 2 3 4 5
4 2 6 5 4
5 2 5 6 7
6 1 8 7 6
7 1 9 10 11
8 2 12 11 10
9 2 11 12 13
10 2 14 13 12
11 2 13 14 15
12 1 16 15 14
13 1 17 18 19
14 2 20 19 18
15 2 19 20 21
16 2 22 21 20
17 2 21 22 23
18 1 24 23 22
19 1 25 26 27
20 2 28 27 26
21 2 27 28 29
22 2 30 29 28
23 2 29 30 31
24 1 32 31 30
25 1 33 34 35
26 2 36 35 34
27 2 35 36 37
28 2 38 37 36
29 2 37 38 39
30 1 40 39 38
31 1 41 42 43
32 2 44 43 42
33 2 43 44 45
34 2 46 45 44
35 2 45 46 47
36 1 48 47 46
37 1 49 50 51
38 2 52 51 50
39 2 51 52 53
40 2 54 53 52
41 2 53 54 55
42 1 56 55 54

Dihedrals

1 1 1 2 3 4
2 1 2 3 4 5
3 1 3 4 5 6
4 1 4 5 6 7
5 1 5 6 7 8
6 1 9 10 11 12
7 1 10 11 12 13
8 1 11 12 13 14
9 1 12 13 14 15
10 1 13 14 15 16
11 1 17 18 19 20
12 1 18 19 20 21
13 1 19 20 21 22
14 1 20 21 22 23
15 1 21 22 23 24
16 1 25 26 27 28
17 1 26 27 28 29
18 1 27 28 29 30
19 1 28 29 30 31
20 1 29 30 31 32
21 1 33 34 35 36
22 1 34 35 36 37
23 1 35 36 37 38
24 1 36 37 38 39
25 1 37 38 39 40
26 1 41 42 43 44
27 1 42 43 44 45
28 1 43 44 45 46
29 1 44 45 46 47
30 1 45 46 47 48
31 1 49 50 51 52
32 1 50 51 52 53
33 1 51 52 53 54
34 1 52 53 54 55
35 1 53 54 55 56

