LAMMPS Description # full

56 atoms
49 bonds
42 angles
35 dihedrals
0 impropers

2 atom types
2 bond types
2 angle types
1 dihedral types
0 improper types

0 7.9426 xlo xhi
0 7.9426 ylo yhi
0 7.9426 zlo zhi

Masses

1 15.0350 # CH3 n-Butane C 83 #
2 14.0270 # CH2 n-Butane C 86 #

Pair Coeffs

1 0.1750 3.9050
2 0.1180 3.9050

Bond Coeffs

1 260.0000 1.5260
2 260.0000 1.5260

Angle Coeffs

1 63.0000 112.4000
2 63.0000 112.4000

Dihedral Coeffs

1 0.0000 0.0000 4.0000 0.0000

Atoms

1 1 1 0.0000 4.0012 -0.5537 6.0205
2 1 2 0.0000 4.0693 -1.7486 5.0738
3 1 2 0.0000 3.0264 -1.6701 3.9625
4 1 2 0.0000 3.0945 -2.8650 3.0157
5 1 2 0.0000 4.0135 -3.9669 3.5352
6 1 2 0.0000 5.4541 -3.7935 3.0628
7 1 2 0.0000 6.3731 -4.8955 3.5823
8 1 1 0.0000 7.0242 -5.6898 2.4537
9 2 1 0.0000 0.3925 3.1605 -3.7186
10 2 2 0.0000 -0.4733 2.2596 -2.8813
11 2 2 0.0000 -0.7940 0.9553 -3.5395
12 2 2 0.0000 -2.2609 0.6194 -3.5253
13 2 2 0.0000 -2.4649 -0.8010 -3.9804
14 2 2 0.0000 -1.5789 -1.7815 -3.2603
15 2 2 0.0000 -0.8673 -2.6711 -4.2471
16 2 1 0.0000 0.6159 -2.7503 -4.0068
17 3 1 0.0000 9.2249 2.3257 0.8791
18 3 2 0.0000 7.9608 2.4127 0.0687
19 3 2 0.0000 6.9350 1.3918 0.4466
20 3 2 0.0000 7.3744 0.4825 1.5623
21 3 2 0.0000 8.7384 -0.0775 1.2588
22 3 2 0.0000 8.7282 -1.0668 0.1247
23 3 2 0.0000 9.9382 -0.8738 -0.7530
24 3 1 0.0000 10.5417 -2.1711 -1.2187
25 4 1 0.0000 6.8705 6.4207 0.6849
26 4 2 0.0000 7.8259 5.4480 1.3201
27 4 2 0.0000 7.1812 4.1687 1.7502
28 4 2 0.0000 6.0004 3.7762 0.9038
29 4 2 0.0000 4.8541 4.7188 1.1562
30 4 2 0.0000 3.5212 4.0219 1.2089
31 4 2 0.0000 2.4035 5.0051 0.9734
32 4 1 0.0000 1.4271 4.5477 -0.0761
33 5 1 0.0000 4.7791 2.0811 2.4429
34 5 2 0.0000 4.3145 0.6889 2.7718
35 5 2 0.0000 4.5126 -0.2882 1.6567
36 5 2 0.0000 3.2625 -0.5560 0.8628
37 5 2 0.0000 2.6274 0.7461 0.4538
38 5 2 0.0000 3.3922 1.9495 0.9355
39 5 2 0.0000 4.6972 2.0760 0.1922
40 5 1 0.0000 5.1350 0.7895 -0.4537
41 6 1 0.0000 5.1496 5.1448 -0.8589
42 6 2 0.0000 3.9338 4.2663 -0.9701
43 6 2 0.0000 4.0374 3.2329 -2.0466
44 6 2 0.0000 3.6958 1.8433 -1.5808
45 6 2 0.0000 2.2009 1.6731 -1.5322
46 6 2 0.0000 1.5690 1.6373 -2.8977
47 6 2 0.0000 2.6199 1.7840 -3.9680
48 6 1 0.0000 2.1633 1.2908 -5.3143
49 7 1 0.0000 0.3472 -0.9539 3.0962
50 7 2 0.0000 0.9942 -0.0787 4.1344
51 7 2 0.0000 0.6286 -0.4434 5.5382
52 7 2 0.0000 0.7945 -1.9080 5.8415
53 7 2 0.0000 -0.5277 -2.4983 6.2530
54 7 2 0.0000 -0.4984 -4.0004 6.3415
55 7 2 0.0000 0.9167 -4.5068 6.2297
56 7 1 0.0000 1.7958 -3.6199 5.3902

Bonds

1 1 1 2
2 2 3 4
3 2 5 6
4 1 7 8
5 2 2 3
6 2 4 5
7 2 6 7
8 1 9 10
9 2 11 12
10 2 13 14
11 1 15 16
12 2 10 11
13 2 12 13
14 2 14 15
15 1 17 18
16 2 19 20
17 2 21 22
18 1 23 24
19 2 18 19
20 2 20 21
21 2 22 23
22 1 25 26
23 2 27 28
24 2 29 30
25 1 31 32
26 2 26 27
27 2 28 29
28 2 30 31
29 1 33 34
30 2 35 36
31 2 37 38
32 1 39 40
33 2 34 35
34 2 36 37
35 2 38 39
36 1 41 42
37 2 43 44
38 2 45 46
39 1 47 48
40 2 42 43
41 2 44 45
42 2 46 47
43 1 49 50
44 2 51 52
45 2 53 54
46 1 55 56
47 2 50 51
48 2 52 53
49 2 54 55

Angles

1 1 1 2 3
2 2 4 3 2
3 2 3 4 5
4 2 6 5 4
5 2 5 6 7
6 1 8 7 6
7 1 9 10 11
8 2 12 11 10
9 2 11 12 13
10 2 14 13 12
11 2 13 14 15
12 1 16 15 14
13 1 17 18 19
14 2 20 19 18
15 2 19 20 21
16 2 22 21 20
17 2 21 22 23
18 1 24 23 22
19 1 25 26 27
20 2 28 27 26
21 2 27 28 29
22 2 30 29 28
23 2 29 30 31
24 1 32 31 30
25 1 33 34 35
26 2 36 35 34
27 2 35 36 37
28 2 38 37 36
29 2 37 38 39
30 1 40 39 38
31 1 41 42 43
32 2 44 43 42
33 2 43 44 45
34 2 46 45 44
35 2 45 46 47
36 1 48 47 46
37 1 49 50 51
38 2 52 51 50
39 2 51 52 53
40 2 54 53 52
41 2 53 54 55
42 1 56 55 54

Dihedrals

1 1 1 2 3 4
2 1 2 3 4 5
3 1 3 4 5 6
4 1 4 5 6 7
5 1 5 6 7 8
6 1 9 10 11 12
7 1 10 11 12 13
8 1 11 12 13 14
9 1 12 13 14 15
10 1 13 14 15 16
11 1 17 18 19 20
12 1 18 19 20 21
13 1 19 20 21 22
14 1 20 21 22 23
15 1 21 22 23 24
16 1 25 26 27 28
17 1 26 27 28 29
18 1 27 28 29 30
19 1 28 29 30 31
20 1 29 30 31 32
21 1 33 34 35 36
22 1 34 35 36 37
23 1 35 36 37 38
24 1 36 37 38 39
25 1 37 38 39 40
26 1 41 42 43 44
27 1 42 43 44 45
28 1 43 44 45 46
29 1 44 45 46 47
30 1 45 46 47 48
31 1 49 50 51 52
32 1 50 51 52 53
33 1 51 52 53 54
34 1 52 53 54 55
35 1 53 54 55 56

