LAMMPS Description # full

56 atoms
49 bonds
42 angles
35 dihedrals
0 impropers

2 atom types
2 bond types
2 angle types
1 dihedral types
0 improper types

-7.05 14.95 xlo xhi # 0.00 8.05
-9.31 12.69 ylo yhi # 0.00 8.05
-6.69 15.31 zlo zhi # 0.00 8.05

Masses

1 15.035 # CH3 n-Butane C 83
2 14.027 # CH2 n-Butane C 86

Pair Coeffs

1 0.1750 3.9050
2 0.1180 3.9050

Bond Coeffs

1  260.0 1.526
2  260.0 1.526

Angle Coeffs

1 63.0 112.4
2 63.0 112.4

Dihedral Coeffs

1  0.0 0.0 4.0 0.0

Atoms

1 1 1 0.0000 6.070 3.857 5.988
2 1 2 0.0000 6.335 5.346 5.781
3 1 2 0.0000 6.836 5.525 4.350
4 1 2 0.0000 5.919 6.441 3.546
5 1 2 0.0000 4.612 5.690 3.309
6 1 2 0.0000 4.884 4.201 3.501
7 1 2 0.0000 6.336 3.938 3.112
8 1 1 0.0000 6.654 4.771 1.874
9 2 1 0.0000 -1.132 2.572 1.492
10 2 2 0.0000 0.143 2.981 0.759
11 2 2 0.0000 0.074 4.490 0.534
12 2 2 0.0000 1.355 5.183 0.988
13 2 2 0.0000 1.663 4.698 2.402
14 2 2 0.0000 0.394 4.847 3.237
15 2 2 0.0000 0.527 3.933 4.452
16 2 1 0.0000 1.874 3.222 4.367
17 3 1 0.0000 2.809 4.069 6.029
18 3 2 0.0000 1.885 3.510 7.107
19 3 2 0.0000 2.750 3.174 8.319
20 3 2 0.0000 3.655 4.341 8.703
21 3 2 0.0000 4.919 3.756 9.327
22 3 2 0.0000 4.603 2.334 9.783
23 3 2 0.0000 4.178 1.535 8.555
24 3 1 0.0000 4.468 2.377 7.316
25 4 1 0.0000 5.876 -0.310 0.748
26 4 2 0.0000 4.915 -0.126 1.920
27 4 2 0.0000 5.638 0.708 2.974
28 4 2 0.0000 7.150 0.667 2.781
29 4 2 0.0000 7.738 1.872 3.511
30 4 2 0.0000 8.855 2.447 2.645
31 4 2 0.0000 9.295 1.360 1.669
32 4 1 0.0000 10.570 0.722 2.212
33 5 1 0.0000 4.428 3.023 5.246
34 5 2 0.0000 3.581 2.098 4.375
35 5 2 0.0000 3.623 0.711 5.011
36 5 2 0.0000 3.733 -0.386 3.956
37 5 2 0.0000 3.042 -1.628 4.511
38 5 2 0.0000 1.927 -1.168 5.446
39 5 2 0.0000 1.406 -2.395 6.189
40 5 1 0.0000 0.136 -1.996 6.933
41 6 1 0.0000 -0.096 -0.262 4.491
42 6 2 0.0000 1.251 0.003 3.823
43 6 2 0.0000 1.362 -0.942 2.630
44 6 2 0.0000 0.397 -0.553 1.515
45 6 2 0.0000 1.128 -0.741 0.189
46 6 2 0.0000 2.627 -0.748 0.475
47 6 2 0.0000 3.318 0.034 -0.639
48 6 1 0.0000 2.598 1.370 -0.797
49 7 1 0.0000 7.353 2.172 6.733
50 7 2 0.0000 6.515 1.504 5.646
51 7 2 0.0000 6.460 0.013 5.965
52 7 2 0.0000 5.149 -0.368 6.645
53 7 2 0.0000 4.576 -1.570 5.898
54 7 2 0.0000 4.455 -2.724 6.888
55 7 2 0.0000 5.555 -2.559 7.933
56 7 1 0.0000 4.900 -2.172 9.255

Bonds

1 1 1 2
2 2 3 4
3 2 5 6
4 1 7 8
5 2 2 3
6 2 4 5
7 2 6 7
8 1 9 10
9 2 11 12
10 2 13 14
11 1 15 16
12 2 10 11
13 2 12 13
14 2 14 15
15 1 17 18
16 2 19 20
17 2 21 22
18 1 23 24
19 2 18 19
20 2 20 21
21 2 22 23
22 1 25 26
23 2 27 28
24 2 29 30
25 1 31 32
26 2 26 27
27 2 28 29
28 2 30 31
29 1 33 34
30 2 35 36
31 2 37 38
32 1 39 40
33 2 34 35
34 2 36 37
35 2 38 39
36 1 41 42
37 2 43 44
38 2 45 46
39 1 47 48
40 2 42 43
41 2 44 45
42 2 46 47
43 1 49 50
44 2 51 52
45 2 53 54
46 1 55 56
47 2 50 51
48 2 52 53
49 2 54 55

Angles

1 1 1 2 3
2 2 4 3 2
3 2 3 4 5
4 2 6 5 4
5 2 5 6 7
6 1 8 7 6
7 1 9 10 11
8 2 12 11 10
9 2 11 12 13
10 2 14 13 12
11 2 13 14 15
12 1 16 15 14
13 1 17 18 19
14 2 20 19 18
15 2 19 20 21
16 2 22 21 20
17 2 21 22 23
18 1 24 23 22
19 1 25 26 27
20 2 28 27 26
21 2 27 28 29
22 2 30 29 28
23 2 29 30 31
24 1 32 31 30
25 1 33 34 35
26 2 36 35 34
27 2 35 36 37
28 2 38 37 36
29 2 37 38 39
30 1 40 39 38
31 1 41 42 43
32 2 44 43 42
33 2 43 44 45
34 2 46 45 44
35 2 45 46 47
36 1 48 47 46
37 1 49 50 51
38 2 52 51 50
39 2 51 52 53
40 2 54 53 52
41 2 53 54 55
42 1 56 55 54

Dihedrals

1 1 1 2 3 4
2 1 2 3 4 5
3 1 3 4 5 6
4 1 4 5 6 7
5 1 5 6 7 8
6 1 9 10 11 12
7 1 10 11 12 13
8 1 11 12 13 14
9 1 12 13 14 15
10 1 13 14 15 16
11 1 17 18 19 20
12 1 18 19 20 21
13 1 19 20 21 22
14 1 20 21 22 23
15 1 21 22 23 24
16 1 25 26 27 28
17 1 26 27 28 29
18 1 27 28 29 30
19 1 28 29 30 31
20 1 29 30 31 32
21 1 33 34 35 36
22 1 34 35 36 37
23 1 35 36 37 38
24 1 36 37 38 39
25 1 37 38 39 40
26 1 41 42 43 44
27 1 42 43 44 45
28 1 43 44 45 46
29 1 44 45 46 47
30 1 45 46 47 48
31 1 49 50 51 52
32 1 50 51 52 53
33 1 51 52 53 54
34 1 52 53 54 55
35 1 53 54 55 56

