LAMMPS Description

5 atoms
4 bonds
6 angles
0 dihedrals
0 impropers

2 atom types
1 bond types
1 angle types
0 dihedral types
0 improper types

-0.62 5.59 xlo xhi
-1.24 4.97 ylo yhi
-1.24 4.97 zlo zhi

Masses

1 15.035 # CH3 Neopentane C 85
2 12.011 # C Neopentane C 90

Pair Coeffs

1 0.1450 3.9600
2 0.0500 3.8000

Bond Coeffs

1  317.0 1.522

Angle Coeffs

1 40.0 109.5

Atoms

1 1 1 0.0000 1.057 1.632 2.396
2 1 2 0.0000 2.472 1.835 1.873
3 1 1 0.0000 2.733 1.038 0.603
4 1 1 0.0000 2.614 3.316 1.548
5 1 1 0.0000 3.545 1.496 2.897

Bonds

1 1 1 2
2 1 2 3
3 1 2 4
4 1 2 5

Angles

1 1 1 2 3
2 1 1 2 4
3 1 1 2 5
4 1 3 2 4
5 1 3 2 5
6 1 4 2 5

