LAMMPS Description

1000 atoms
0 bonds
0 angles
0 dihedrals
0 impropers

1 atom types
0 bond types
0 angle types
0 dihedral types
0 improper types

-4.28 46.73 xlo xhi
-4.94 46.07 ylo yhi
-4.73 46.27 zlo zhi

Masses

1 39.948 # Argon Atom Ar 211

Pair Coeffs

1 0.2340 3.4010

Atoms

1 1 1 0.0000 37.728 9.995 17.631
2 2 1 0.0000 42.859 31.458 18.064
3 3 1 0.0000 10.354 25.605 9.823
4 4 1 0.0000 17.440 24.668 32.216
5 5 1 0.0000 22.669 29.758 4.181
6 6 1 0.0000 12.785 37.778 12.767
7 7 1 0.0000 31.466 21.596 22.743
8 8 1 0.0000 9.455 0.605 25.610
9 9 1 0.0000 24.768 15.501 31.014
10 10 1 0.0000 40.653 16.529 13.182
11 11 1 0.0000 46.244 37.702 12.674
12 12 1 0.0000 12.632 14.930 -5.059
13 13 1 0.0000 13.838 5.168 6.970
14 14 1 0.0000 0.306 43.996 42.716
15 15 1 0.0000 48.020 9.934 -1.907
16 16 1 0.0000 41.399 33.187 32.551
17 17 1 0.0000 18.987 41.869 36.758
18 18 1 0.0000 22.175 -1.004 17.906
19 19 1 0.0000 32.965 13.337 41.884
20 20 1 0.0000 1.752 0.845 14.555
21 21 1 0.0000 30.203 30.272 31.814
22 22 1 0.0000 38.529 44.039 9.195
23 23 1 0.0000 8.323 11.652 15.383
24 24 1 0.0000 28.730 34.464 14.849
25 25 1 0.0000 7.495 24.993 37.041
26 26 1 0.0000 11.627 0.927 29.998
27 27 1 0.0000 20.882 26.389 46.151
28 28 1 0.0000 10.651 45.348 -1.902
29 29 1 0.0000 42.515 9.598 29.599
30 30 1 0.0000 36.141 22.774 -2.385
31 31 1 0.0000 22.742 8.742 -2.233
32 32 1 0.0000 33.424 42.473 28.963
33 33 1 0.0000 33.127 39.946 -5.963
34 34 1 0.0000 27.688 -3.635 42.629
35 35 1 0.0000 -4.600 13.624 23.675
36 36 1 0.0000 20.377 43.347 45.249
37 37 1 0.0000 32.000 -2.585 36.985
38 38 1 0.0000 0.573 16.564 22.674
39 39 1 0.0000 5.603 35.454 21.932
40 40 1 0.0000 42.366 16.244 43.179
41 41 1 0.0000 2.230 10.322 1.052
42 42 1 0.0000 25.630 -3.023 39.811
43 43 1 0.0000 27.368 39.534 46.847
44 44 1 0.0000 11.201 10.517 33.004
45 45 1 0.0000 -4.140 28.651 0.696
46 46 1 0.0000 30.594 5.837 22.413
47 47 1 0.0000 32.665 27.513 43.086
48 48 1 0.0000 5.186 32.252 47.488
49 49 1 0.0000 29.809 40.491 -2.479
50 50 1 0.0000 14.981 17.001 10.000
51 51 1 0.0000 40.907 17.990 24.781
52 52 1 0.0000 31.742 0.865 27.387
53 53 1 0.0000 39.551 2.470 39.797
54 54 1 0.0000 34.459 22.864 1.746
55 55 1 0.0000 10.460 14.066 38.628
56 56 1 0.0000 45.880 41.925 26.241
57 57 1 0.0000 -1.574 26.406 -3.570
58 58 1 0.0000 -2.318 20.721 4.042
59 59 1 0.0000 17.591 23.569 18.043
60 60 1 0.0000 36.532 23.977 -5.428
61 61 1 0.0000 0.634 2.857 34.259
62 62 1 0.0000 17.065 6.462 31.446
63 63 1 0.0000 19.089 0.546 48.043
64 64 1 0.0000 23.046 29.048 23.179
65 65 1 0.0000 38.260 24.554 -3.302
66 66 1 0.0000 37.568 29.308 -4.256
67 67 1 0.0000 37.933 33.047 0.737
68 68 1 0.0000 6.552 41.571 5.088
69 69 1 0.0000 4.928 0.980 7.534
70 70 1 0.0000 5.564 33.328 33.545
71 71 1 0.0000 33.327 -7.610 45.353
72 72 1 0.0000 18.486 22.506 33.891
73 73 1 0.0000 38.893 38.227 44.123
74 74 1 0.0000 -3.338 24.287 33.468
75 75 1 0.0000 27.269 -2.124 45.839
76 76 1 0.0000 16.654 40.737 7.710
77 77 1 0.0000 43.704 31.291 13.740
78 78 1 0.0000 25.570 45.950 9.588
79 79 1 0.0000 20.363 18.634 4.982
80 80 1 0.0000 31.924 4.562 -1.692
81 81 1 0.0000 40.420 26.824 41.348
82 82 1 0.0000 21.136 15.179 11.311
83 83 1 0.0000 25.218 4.433 25.178
84 84 1 0.0000 45.487 10.820 46.180
85 85 1 0.0000 46.539 -2.783 16.530
86 86 1 0.0000 34.963 -0.341 1.764
87 87 1 0.0000 -0.427 30.137 -0.685
88 88 1 0.0000 33.118 43.953 32.501
89 89 1 0.0000 33.511 20.395 8.652
90 90 1 0.0000 45.065 4.695 19.378
91 91 1 0.0000 -2.007 22.139 31.093
92 92 1 0.0000 25.787 6.623 1.158
93 93 1 0.0000 -0.795 5.305 38.159
94 94 1 0.0000 22.244 22.343 17.080
95 95 1 0.0000 44.894 38.691 44.391
96 96 1 0.0000 37.431 37.174 12.531
97 97 1 0.0000 37.313 26.006 34.523
98 98 1 0.0000 11.406 29.710 40.388
99 99 1 0.0000 17.913 32.445 30.559
100 100 1 0.0000 6.762 39.067 19.837
101 101 1 0.0000 31.055 8.634 -0.622
102 102 1 0.0000 4.261 0.958 9.824
103 103 1 0.0000 29.392 6.793 31.566
104 104 1 0.0000 4.312 20.595 5.687
105 105 1 0.0000 11.070 20.222 20.312
106 106 1 0.0000 22.852 39.646 15.914
107 107 1 0.0000 27.766 26.561 6.778
108 108 1 0.0000 4.688 9.549 36.487
109 109 1 0.0000 4.111 -0.931 43.443
110 110 1 0.0000 11.137 29.577 37.083
111 111 1 0.0000 12.006 9.737 40.179
112 112 1 0.0000 43.918 45.440 21.777
113 113 1 0.0000 46.245 8.141 25.680
114 114 1 0.0000 10.141 43.856 37.445
115 115 1 0.0000 23.541 30.958 15.351
116 116 1 0.0000 35.647 45.011 23.896
117 117 1 0.0000 26.986 16.206 37.613
118 118 1 0.0000 31.174 -0.566 34.694
119 119 1 0.0000 37.845 3.920 5.681
120 120 1 0.0000 12.249 16.593 42.944
121 121 1 0.0000 -1.011 23.974 41.710
122 122 1 0.0000 -4.360 31.080 2.287
123 123 1 0.0000 -0.905 14.303 20.248
124 124 1 0.0000 17.536 35.306 34.630
125 125 1 0.0000 36.604 22.343 3.347
126 126 1 0.0000 -0.009 32.277 21.137
127 127 1 0.0000 -2.361 21.805 14.773
128 128 1 0.0000 15.753 25.000 3.941
129 129 1 0.0000 3.269 14.285 -0.215
130 130 1 0.0000 35.290 32.499 33.959
131 131 1 0.0000 33.486 3.257 32.668
132 132 1 0.0000 41.191 48.066 43.298
133 133 1 0.0000 6.890 20.012 22.255
134 134 1 0.0000 42.502 34.573 -4.577
135 135 1 0.0000 14.107 -0.256 37.429
136 136 1 0.0000 16.285 46.839 17.541
137 137 1 0.0000 17.348 33.710 -3.101
138 138 1 0.0000 -5.742 28.894 5.461
139 139 1 0.0000 39.857 6.222 8.300
140 140 1 0.0000 3.241 31.177 -0.953
141 141 1 0.0000 10.440 12.315 40.724
142 142 1 0.0000 45.380 -2.577 34.449
143 143 1 0.0000 30.204 39.490 6.234
144 144 1 0.0000 9.073 4.099 9.157
145 145 1 0.0000 20.781 29.946 39.666
146 146 1 0.0000 29.762 21.979 15.850
147 147 1 0.0000 21.378 -1.387 9.313
148 148 1 0.0000 21.707 34.557 19.058
149 149 1 0.0000 30.744 37.661 6.860
150 150 1 0.0000 -3.330 37.402 3.916
151 151 1 0.0000 40.835 22.866 -0.364
152 152 1 0.0000 7.940 15.266 42.318
153 153 1 0.0000 9.446 18.528 46.195
154 154 1 0.0000 19.322 35.055 36.848
155 155 1 0.0000 43.093 13.511 27.907
156 156 1 0.0000 22.632 9.804 25.077
157 157 1 0.0000 30.910 37.071 10.406
158 158 1 0.0000 -5.589 32.982 19.808
159 159 1 0.0000 1.835 42.306 27.843
160 160 1 0.0000 47.886 16.955 25.317
161 161 1 0.0000 37.925 41.667 34.847
162 162 1 0.0000 20.752 4.894 38.808
163 163 1 0.0000 1.350 45.264 44.111
164 164 1 0.0000 37.220 12.998 45.019
165 165 1 0.0000 38.277 0.892 -1.030
166 166 1 0.0000 36.625 -3.239 18.357
167 167 1 0.0000 5.712 37.071 9.026
168 168 1 0.0000 -2.363 -3.204 27.446
169 169 1 0.0000 39.499 9.166 9.464
170 170 1 0.0000 13.896 42.970 -1.586
171 171 1 0.0000 -2.725 19.554 32.122
172 172 1 0.0000 5.947 2.586 34.046
173 173 1 0.0000 11.899 9.794 25.475
174 174 1 0.0000 10.434 12.851 46.313
175 175 1 0.0000 28.202 -3.798 17.540
176 176 1 0.0000 28.837 26.145 18.342
177 177 1 0.0000 45.547 40.794 4.815
178 178 1 0.0000 23.194 20.315 38.518
179 179 1 0.0000 6.829 38.907 7.030
180 180 1 0.0000 42.252 -2.315 32.483
181 181 1 0.0000 19.667 32.135 37.686
182 182 1 0.0000 12.871 44.015 19.398
183 183 1 0.0000 41.177 42.117 6.251
184 184 1 0.0000 -4.131 33.505 24.876
185 185 1 0.0000 41.151 -5.039 10.965
186 186 1 0.0000 42.545 -1.331 35.653
187 187 1 0.0000 -3.833 31.109 26.599
188 188 1 0.0000 9.889 20.484 27.560
189 189 1 0.0000 -5.838 27.753 13.243
190 190 1 0.0000 44.563 18.562 -0.022
191 191 1 0.0000 11.419 39.183 4.980
192 192 1 0.0000 28.121 -1.518 14.615
193 193 1 0.0000 18.420 25.686 0.501
194 194 1 0.0000 41.843 20.905 42.199
195 195 1 0.0000 36.417 33.310 29.276
196 196 1 0.0000 37.007 7.352 42.100
197 197 1 0.0000 25.398 39.996 31.358
198 198 1 0.0000 -4.276 40.843 28.571
199 199 1 0.0000 -3.293 22.476 36.647
200 200 1 0.0000 5.481 2.699 12.015
201 201 1 0.0000 41.205 26.289 13.322
202 202 1 0.0000 2.413 38.255 37.222
203 203 1 0.0000 30.703 15.777 41.768
204 204 1 0.0000 30.130 12.687 17.777
205 205 1 0.0000 44.182 31.107 33.072
206 206 1 0.0000 27.743 11.678 13.706
207 207 1 0.0000 13.650 9.251 41.599
208 208 1 0.0000 29.620 19.958 18.031
209 209 1 0.0000 31.461 41.373 10.070
210 210 1 0.0000 29.540 24.057 48.039
211 211 1 0.0000 6.050 36.892 26.014
212 212 1 0.0000 33.448 43.576 12.086
213 213 1 0.0000 40.047 10.667 8.114
214 214 1 0.0000 0.715 39.161 35.568
215 215 1 0.0000 41.414 3.255 13.277
216 216 1 0.0000 -2.339 29.782 -2.762
217 217 1 0.0000 1.546 0.748 39.013
218 218 1 0.0000 2.156 15.036 33.841
219 219 1 0.0000 45.637 32.328 41.064
220 220 1 0.0000 -1.894 42.389 14.055
221 221 1 0.0000 16.105 42.642 43.465
222 222 1 0.0000 14.018 22.459 19.181
223 223 1 0.0000 34.125 7.110 30.092
224 224 1 0.0000 3.032 42.679 25.711
225 225 1 0.0000 44.853 3.518 0.850
226 226 1 0.0000 9.620 -3.378 3.526
227 227 1 0.0000 4.853 10.002 15.890
228 228 1 0.0000 29.120 21.705 25.840
229 229 1 0.0000 45.845 23.149 7.385
230 230 1 0.0000 -1.260 0.449 19.252
231 231 1 0.0000 19.569 13.850 27.464
232 232 1 0.0000 21.339 -1.632 0.720
233 233 1 0.0000 21.805 32.876 37.852
234 234 1 0.0000 -1.878 32.486 3.749
235 235 1 0.0000 23.058 42.125 36.707
236 236 1 0.0000 7.409 25.522 7.763
237 237 1 0.0000 38.837 15.035 5.402
238 238 1 0.0000 44.781 15.345 32.670
239 239 1 0.0000 47.680 22.968 19.729
240 240 1 0.0000 8.166 37.123 41.643
241 241 1 0.0000 25.696 34.084 -5.640
242 242 1 0.0000 34.541 41.716 21.321
243 243 1 0.0000 22.410 42.942 40.081
244 244 1 0.0000 -5.254 -0.607 1.581
245 245 1 0.0000 17.395 -1.873 2.897
246 246 1 0.0000 21.293 26.448 44.193
247 247 1 0.0000 12.546 44.559 22.236
248 248 1 0.0000 31.810 10.741 32.314
249 249 1 0.0000 23.711 15.254 2.890
250 250 1 0.0000 20.769 40.430 34.515
251 251 1 0.0000 24.655 30.484 24.830
252 252 1 0.0000 16.890 27.975 -4.793
253 253 1 0.0000 7.411 31.360 5.605
254 254 1 0.0000 0.276 22.746 31.385
255 255 1 0.0000 35.461 39.149 43.968
256 256 1 0.0000 13.593 4.883 45.996
257 257 1 0.0000 2.562 36.349 6.949
258 258 1 0.0000 20.694 35.374 23.368
259 259 1 0.0000 25.082 34.795 19.535
260 260 1 0.0000 10.911 10.292 2.471
261 261 1 0.0000 24.685 27.401 7.636
262 262 1 0.0000 25.530 25.632 6.870
263 263 1 0.0000 14.276 40.978 28.138
264 264 1 0.0000 -3.753 25.574 29.326
265 265 1 0.0000 28.920 6.205 37.406
266 266 1 0.0000 32.555 6.985 43.594
267 267 1 0.0000 4.611 44.098 -2.268
268 268 1 0.0000 4.279 43.293 27.301
269 269 1 0.0000 25.046 28.667 45.649
270 270 1 0.0000 44.481 29.516 36.290
271 271 1 0.0000 5.394 22.576 27.144
272 272 1 0.0000 10.714 40.181 24.084
273 273 1 0.0000 23.302 6.178 14.972
274 274 1 0.0000 38.584 -1.904 27.804
275 275 1 0.0000 51.500 12.238 12.141
276 276 1 0.0000 32.651 11.705 18.945
277 277 1 0.0000 11.748 30.156 4.477
278 278 1 0.0000 20.821 32.267 4.359
279 279 1 0.0000 30.560 25.677 22.822
280 280 1 0.0000 15.985 31.839 16.554
281 281 1 0.0000 14.447 2.171 5.015
282 282 1 0.0000 30.417 48.646 45.073
283 283 1 0.0000 -1.345 32.722 26.518
284 284 1 0.0000 31.536 3.487 42.422
285 285 1 0.0000 -7.147 12.181 5.447
286 286 1 0.0000 22.833 43.796 3.235
287 287 1 0.0000 43.502 44.273 14.393
288 288 1 0.0000 -7.723 2.537 21.021
289 289 1 0.0000 13.064 19.971 -5.527
290 290 1 0.0000 48.454 -4.351 38.434
291 291 1 0.0000 0.533 12.595 6.619
292 292 1 0.0000 -0.691 23.371 28.092
293 293 1 0.0000 24.600 34.687 -2.650
294 294 1 0.0000 13.298 16.542 -3.238
295 295 1 0.0000 26.897 32.181 8.280
296 296 1 0.0000 -1.052 0.979 22.321
297 297 1 0.0000 31.764 6.864 15.749
298 298 1 0.0000 29.690 23.861 20.946
299 299 1 0.0000 44.584 15.400 9.950
300 300 1 0.0000 47.982 41.993 31.792
301 301 1 0.0000 21.220 -5.323 14.960
302 302 1 0.0000 32.358 8.835 20.615
303 303 1 0.0000 17.155 17.753 -5.611
304 304 1 0.0000 13.957 18.480 -3.331
305 305 1 0.0000 32.025 33.909 38.081
306 306 1 0.0000 20.212 13.175 44.793
307 307 1 0.0000 15.139 42.469 20.828
308 308 1 0.0000 24.091 32.297 -3.816
309 309 1 0.0000 30.442 33.636 -1.208
310 310 1 0.0000 43.899 40.111 -1.630
311 311 1 0.0000 31.486 16.048 23.738
312 312 1 0.0000 14.582 20.411 34.370
313 313 1 0.0000 36.628 27.522 22.769
314 314 1 0.0000 -3.539 2.628 3.223
315 315 1 0.0000 42.365 -4.700 35.314
316 316 1 0.0000 10.606 5.778 15.573
317 317 1 0.0000 13.929 7.593 15.332
318 318 1 0.0000 34.302 10.932 44.680
319 319 1 0.0000 1.655 30.590 42.262
320 320 1 0.0000 -3.461 6.202 18.355
321 321 1 0.0000 0.382 2.068 20.353
322 322 1 0.0000 -2.173 6.382 40.466
323 323 1 0.0000 37.255 34.393 14.256
324 324 1 0.0000 19.518 9.215 1.319
325 325 1 0.0000 9.141 21.302 45.468
326 326 1 0.0000 1.892 45.901 28.873
327 327 1 0.0000 12.139 31.538 13.209
328 328 1 0.0000 32.803 9.362 30.652
329 329 1 0.0000 -2.491 6.444 20.582
330 330 1 0.0000 20.372 15.439 -3.787
331 331 1 0.0000 24.541 23.175 25.244
332 332 1 0.0000 9.256 40.330 38.798
333 333 1 0.0000 3.319 20.606 46.841
334 334 1 0.0000 39.144 -2.430 30.594
335 335 1 0.0000 32.288 17.409 35.031
336 336 1 0.0000 25.142 -3.317 17.242
337 337 1 0.0000 42.297 39.492 22.977
338 338 1 0.0000 15.499 14.403 -2.797
339 339 1 0.0000 11.934 15.949 17.652
340 340 1 0.0000 21.057 40.721 28.319
341 341 1 0.0000 28.801 26.509 4.930
342 342 1 0.0000 35.782 7.536 39.959
343 343 1 0.0000 35.673 1.742 8.471
344 344 1 0.0000 12.516 40.852 36.266
345 345 1 0.0000 5.471 5.600 26.094
346 346 1 0.0000 14.326 10.042 2.563
347 347 1 0.0000 45.714 -4.357 36.092
348 348 1 0.0000 33.220 16.418 32.618
349 349 1 0.0000 11.534 15.075 -2.350
350 350 1 0.0000 20.857 44.098 38.844
351 351 1 0.0000 15.887 5.781 18.759
352 352 1 0.0000 41.879 -4.584 6.838
353 353 1 0.0000 25.174 46.686 36.591
354 354 1 0.0000 44.969 -3.543 30.538
355 355 1 0.0000 43.833 14.942 37.964
356 356 1 0.0000 -7.129 24.036 4.901
357 357 1 0.0000 -7.616 22.702 46.124
358 358 1 0.0000 35.553 27.263 1.766
359 359 1 0.0000 14.660 13.287 26.098
360 360 1 0.0000 6.384 30.599 -3.730
361 361 1 0.0000 17.512 33.457 35.862
362 362 1 0.0000 -2.858 0.475 -2.433
363 363 1 0.0000 42.066 39.980 42.721
364 364 1 0.0000 -2.201 41.991 -0.903
365 365 1 0.0000 0.692 3.371 41.603
366 366 1 0.0000 14.371 21.820 0.742
367 367 1 0.0000 -3.001 22.702 45.773
368 368 1 0.0000 43.292 28.652 42.343
369 369 1 0.0000 18.727 14.770 6.516
370 370 1 0.0000 -4.801 15.432 7.005
371 371 1 0.0000 -4.683 10.643 21.142
372 372 1 0.0000 26.791 33.810 0.051
373 373 1 0.0000 38.546 25.020 2.895
374 374 1 0.0000 37.721 23.591 7.556
375 375 1 0.0000 7.346 3.299 41.921
376 376 1 0.0000 16.382 -4.585 21.571
377 377 1 0.0000 -3.216 42.943 5.914
378 378 1 0.0000 40.187 27.280 8.027
379 379 1 0.0000 22.510 10.870 15.759
380 380 1 0.0000 -4.736 -0.305 3.634
381 381 1 0.0000 10.278 36.444 6.819
382 382 1 0.0000 6.206 13.252 27.238
383 383 1 0.0000 31.788 42.711 39.553
384 384 1 0.0000 9.807 22.537 29.159
385 385 1 0.0000 -3.650 14.680 45.215
386 386 1 0.0000 -4.337 22.659 42.615
387 387 1 0.0000 19.177 -4.303 11.782
388 388 1 0.0000 0.954 32.400 10.504
389 389 1 0.0000 31.104 19.042 28.462
390 390 1 0.0000 0.204 16.450 44.768
391 391 1 0.0000 41.505 -2.176 2.586
392 392 1 0.0000 0.056 46.491 8.303
393 393 1 0.0000 -3.490 20.706 46.696
394 394 1 0.0000 21.731 -2.999 17.327
395 395 1 0.0000 27.377 42.669 14.193
396 396 1 0.0000 6.819 -3.049 -3.530
397 397 1 0.0000 40.745 43.841 33.330
398 398 1 0.0000 24.129 19.258 8.726
399 399 1 0.0000 40.833 7.466 36.733
400 400 1 0.0000 26.807 -4.284 15.784
401 401 1 0.0000 16.012 5.095 30.393
402 402 1 0.0000 41.052 22.524 20.089
403 403 1 0.0000 32.869 47.286 43.617
404 404 1 0.0000 22.896 3.881 30.681
405 405 1 0.0000 38.077 8.373 38.626
406 406 1 0.0000 10.064 19.000 41.144
407 407 1 0.0000 -2.775 -1.061 1.239
408 408 1 0.0000 1.101 32.201 13.507
409 409 1 0.0000 -2.915 3.539 18.782
410 410 1 0.0000 -1.352 7.631 4.817
411 411 1 0.0000 42.754 19.309 34.521
412 412 1 0.0000 3.484 40.066 26.485
413 413 1 0.0000 -5.857 33.260 43.575
414 414 1 0.0000 3.192 -3.716 28.211
415 415 1 0.0000 0.859 0.835 28.036
416 416 1 0.0000 4.124 2.297 44.686
417 417 1 0.0000 5.153 23.828 43.282
418 418 1 0.0000 26.768 17.250 45.524
419 419 1 0.0000 27.597 7.963 -0.289
420 420 1 0.0000 14.778 10.873 26.098
421 421 1 0.0000 16.246 36.048 1.019
422 422 1 0.0000 33.202 43.589 18.408
423 423 1 0.0000 45.357 18.927 25.925
424 424 1 0.0000 19.568 -5.177 16.183
425 425 1 0.0000 16.731 -4.296 24.387
426 426 1 0.0000 46.643 29.784 46.005
427 427 1 0.0000 9.789 42.525 -3.890
428 428 1 0.0000 2.039 44.170 23.841
429 429 1 0.0000 5.839 8.790 10.501
430 430 1 0.0000 12.493 44.731 25.792
431 431 1 0.0000 46.617 -3.252 41.430
432 432 1 0.0000 2.475 33.821 22.713
433 433 1 0.0000 14.362 24.631 18.648
434 434 1 0.0000 32.335 14.582 13.241
435 435 1 0.0000 3.824 1.093 28.604
436 436 1 0.0000 2.534 23.202 27.769
437 437 1 0.0000 32.434 40.926 1.135
438 438 1 0.0000 15.393 8.584 26.095
439 439 1 0.0000 22.855 -7.716 16.349
440 440 1 0.0000 21.385 -1.984 39.051
441 441 1 0.0000 -1.021 9.237 18.435
442 442 1 0.0000 14.209 20.445 11.882
443 443 1 0.0000 24.042 0.947 17.358
444 444 1 0.0000 35.294 30.956 0.895
445 445 1 0.0000 10.683 2.602 40.728
446 446 1 0.0000 44.823 0.896 33.968
447 447 1 0.0000 22.516 26.344 28.640
448 448 1 0.0000 46.768 31.196 36.726
449 449 1 0.0000 27.684 13.284 8.598
450 450 1 0.0000 8.271 -1.962 45.609
451 451 1 0.0000 23.136 34.182 43.809
452 452 1 0.0000 32.660 26.195 24.989
453 453 1 0.0000 5.958 23.766 24.830
454 454 1 0.0000 28.330 45.018 -1.606
455 455 1 0.0000 31.092 31.336 -0.556
456 456 1 0.0000 -4.318 33.459 48.268
457 457 1 0.0000 30.089 -1.631 20.502
458 458 1 0.0000 -3.175 28.461 40.740
459 459 1 0.0000 42.389 8.264 2.165
460 460 1 0.0000 13.607 13.170 38.413
461 461 1 0.0000 36.269 27.399 38.607
462 462 1 0.0000 37.207 35.795 8.145
463 463 1 0.0000 35.375 32.603 15.288
464 464 1 0.0000 24.274 34.673 38.309
465 465 1 0.0000 -2.196 32.450 43.424
466 466 1 0.0000 39.760 29.500 9.957
467 467 1 0.0000 21.788 26.102 16.105
468 468 1 0.0000 26.988 46.943 -0.773
469 469 1 0.0000 6.522 25.860 28.616
470 470 1 0.0000 19.987 5.846 31.717
471 471 1 0.0000 -1.728 14.090 3.675
472 472 1 0.0000 45.786 -0.737 39.261
473 473 1 0.0000 41.816 45.049 0.006
474 474 1 0.0000 7.379 31.582 30.237
475 475 1 0.0000 35.091 17.592 21.165
476 476 1 0.0000 11.247 20.728 38.388
477 477 1 0.0000 45.905 11.088 39.340
478 478 1 0.0000 3.090 22.935 42.949
479 479 1 0.0000 37.271 29.580 21.801
480 480 1 0.0000 19.941 40.744 21.732
481 481 1 0.0000 41.182 35.282 -2.147
482 482 1 0.0000 33.596 4.514 36.294
483 483 1 0.0000 45.867 33.375 31.409
484 484 1 0.0000 5.465 40.598 7.668
485 485 1 0.0000 12.314 25.063 46.115
486 486 1 0.0000 7.142 -2.561 15.927
487 487 1 0.0000 42.873 -2.798 8.001
488 488 1 0.0000 22.675 44.677 22.556
489 489 1 0.0000 16.648 10.365 33.596
490 490 1 0.0000 12.018 45.478 6.650
491 491 1 0.0000 15.902 4.925 -1.363
492 492 1 0.0000 42.618 17.769 13.322
493 493 1 0.0000 15.853 41.902 37.903
494 494 1 0.0000 25.639 11.566 1.542
495 495 1 0.0000 27.412 -0.750 29.508
496 496 1 0.0000 -0.563 35.989 13.784
497 497 1 0.0000 28.188 5.432 1.199
498 498 1 0.0000 42.958 -0.744 7.722
499 499 1 0.0000 23.843 36.765 4.068
500 500 1 0.0000 30.529 3.567 0.558
501 501 1 0.0000 14.252 19.108 43.968
502 502 1 0.0000 12.050 28.376 18.340
503 503 1 0.0000 34.221 4.879 4.057
504 504 1 0.0000 -3.990 20.577 7.408
505 505 1 0.0000 29.126 17.749 40.633
506 506 1 0.0000 22.857 15.800 -3.402
507 507 1 0.0000 26.763 4.441 3.163
508 508 1 0.0000 30.075 8.757 1.780
509 509 1 0.0000 36.515 40.772 8.763
510 510 1 0.0000 25.391 19.871 37.467
511 511 1 0.0000 36.182 21.753 44.917
512 512 1 0.0000 43.738 1.498 16.157
513 513 1 0.0000 34.064 40.149 41.954
514 514 1 0.0000 8.107 32.176 44.917
515 515 1 0.0000 20.051 -2.817 36.255
516 516 1 0.0000 40.244 34.379 25.780
517 517 1 0.0000 17.561 -1.108 36.149
518 518 1 0.0000 23.743 20.913 41.556
519 519 1 0.0000 -2.327 18.049 4.015
520 520 1 0.0000 10.925 27.106 -4.425
521 521 1 0.0000 12.055 6.209 30.930
522 522 1 0.0000 -1.137 20.618 8.603
523 523 1 0.0000 11.728 -4.448 12.586
524 524 1 0.0000 4.052 -0.824 13.126
525 525 1 0.0000 38.669 6.591 -1.156
526 526 1 0.0000 22.791 0.590 3.766
527 527 1 0.0000 15.095 33.641 6.541
528 528 1 0.0000 25.551 17.498 4.372
529 529 1 0.0000 46.282 17.452 -5.001
530 530 1 0.0000 28.473 9.303 -7.171
531 531 1 0.0000 26.153 1.825 8.139
532 532 1 0.0000 42.532 37.273 36.751
533 533 1 0.0000 16.436 10.972 31.463
534 534 1 0.0000 32.199 23.584 28.483
535 535 1 0.0000 24.048 8.456 20.493
536 536 1 0.0000 10.349 23.531 34.092
537 537 1 0.0000 25.958 8.914 1.730
538 538 1 0.0000 14.132 44.934 6.887
539 539 1 0.0000 42.199 -1.704 47.280
540 540 1 0.0000 -4.457 36.310 43.305
541 541 1 0.0000 43.287 5.649 2.851
542 542 1 0.0000 20.326 5.310 33.995
543 543 1 0.0000 5.115 -0.211 15.155
544 544 1 0.0000 -6.198 16.535 35.575
545 545 1 0.0000 14.145 30.659 -1.306
546 546 1 0.0000 5.696 39.032 36.741
547 547 1 0.0000 11.001 44.411 34.373
548 548 1 0.0000 10.704 42.894 22.708
549 549 1 0.0000 4.065 33.256 44.293
550 550 1 0.0000 30.733 6.227 -0.551
551 551 1 0.0000 45.138 20.461 -0.522
552 552 1 0.0000 32.611 8.004 1.756
553 553 1 0.0000 10.023 35.250 26.343
554 554 1 0.0000 16.265 13.878 15.550
555 555 1 0.0000 1.014 11.408 25.325
556 556 1 0.0000 42.679 18.374 1.730
557 557 1 0.0000 31.299 13.794 5.338
558 558 1 0.0000 22.580 25.427 35.453
559 559 1 0.0000 36.328 34.676 20.259
560 560 1 0.0000 14.908 33.285 28.259
561 561 1 0.0000 38.451 10.261 -3.410
562 562 1 0.0000 7.089 9.491 16.501
563 563 1 0.0000 0.938 9.997 11.998
564 564 1 0.0000 32.979 7.451 34.010
565 565 1 0.0000 33.137 -2.882 17.741
566 566 1 0.0000 19.335 34.636 7.238
567 567 1 0.0000 14.870 37.738 40.924
568 568 1 0.0000 33.447 14.615 -1.607
569 569 1 0.0000 25.217 40.668 27.499
570 570 1 0.0000 38.768 4.454 24.341
571 571 1 0.0000 24.149 23.804 38.663
572 572 1 0.0000 28.026 28.630 19.487
573 573 1 0.0000 1.166 27.600 11.557
574 574 1 0.0000 43.897 19.080 42.861
575 575 1 0.0000 5.238 13.783 10.797
576 576 1 0.0000 28.123 45.389 13.807
577 577 1 0.0000 4.294 -5.163 13.453
578 578 1 0.0000 44.538 15.452 13.841
579 579 1 0.0000 5.368 0.744 40.627
580 580 1 0.0000 30.112 36.129 -1.436
581 581 1 0.0000 2.425 12.041 32.229
582 582 1 0.0000 41.110 31.087 1.012
583 583 1 0.0000 42.817 -4.187 39.741
584 584 1 0.0000 1.029 38.445 39.302
585 585 1 0.0000 31.714 45.753 38.606
586 586 1 0.0000 45.029 2.515 38.997
587 587 1 0.0000 19.690 11.714 16.994
588 588 1 0.0000 13.348 20.872 15.586
589 589 1 0.0000 16.047 12.726 38.194
590 590 1 0.0000 20.166 15.779 19.446
591 591 1 0.0000 4.146 -0.677 4.553
592 592 1 0.0000 17.514 41.724 23.083
593 593 1 0.0000 22.047 0.678 35.699
594 594 1 0.0000 24.225 4.151 34.271
595 595 1 0.0000 7.726 -4.093 3.215
596 596 1 0.0000 9.250 -0.667 7.094
597 597 1 0.0000 34.473 20.240 19.319
598 598 1 0.0000 -0.711 43.335 33.321
599 599 1 0.0000 -1.444 0.076 42.595
600 600 1 0.0000 0.446 46.723 30.385
601 601 1 0.0000 34.457 44.062 -0.812
602 602 1 0.0000 42.118 -1.215 41.079
603 603 1 0.0000 37.443 2.329 28.978
604 604 1 0.0000 44.414 2.766 43.945
605 605 1 0.0000 39.144 30.949 5.106
606 606 1 0.0000 -3.356 17.090 36.247
607 607 1 0.0000 28.911 17.325 3.696
608 608 1 0.0000 11.069 0.916 18.445
609 609 1 0.0000 35.744 -0.709 16.928
610 610 1 0.0000 40.452 -2.484 16.540
611 611 1 0.0000 -3.509 40.171 0.901
612 612 1 0.0000 40.448 18.164 -4.295
613 613 1 0.0000 41.405 25.467 46.144
614 614 1 0.0000 0.431 33.879 32.131
615 615 1 0.0000 -1.366 43.284 2.403
616 616 1 0.0000 1.794 10.193 31.607
617 617 1 0.0000 44.494 8.836 5.005
618 618 1 0.0000 26.923 18.924 3.611
619 619 1 0.0000 17.958 23.076 26.768
620 620 1 0.0000 4.317 8.609 32.296
621 621 1 0.0000 20.307 7.668 36.098
622 622 1 0.0000 4.276 44.232 36.169
623 623 1 0.0000 -5.385 41.562 -0.499
624 624 1 0.0000 20.217 37.183 2.014
625 625 1 0.0000 1.585 10.801 40.475
626 626 1 0.0000 -3.855 44.096 1.912
627 627 1 0.0000 15.990 35.135 9.463
628 628 1 0.0000 -2.916 45.755 4.035
629 629 1 0.0000 39.680 39.573 17.296
630 630 1 0.0000 0.890 22.052 11.315
631 631 1 0.0000 3.590 25.699 16.123
632 632 1 0.0000 44.196 34.769 38.477
633 633 1 0.0000 -1.557 -3.363 -1.552
634 634 1 0.0000 -5.582 -3.060 -5.036
635 635 1 0.0000 21.824 -1.380 5.417
636 636 1 0.0000 40.927 34.241 0.463
637 637 1 0.0000 28.249 3.819 -0.670
638 638 1 0.0000 13.646 5.940 39.513
639 639 1 0.0000 38.422 19.062 27.916
640 640 1 0.0000 43.102 43.014 3.641
641 641 1 0.0000 4.750 12.688 1.539
642 642 1 0.0000 -6.771 43.335 -0.333
643 643 1 0.0000 42.882 46.314 2.582
644 644 1 0.0000 33.002 14.781 19.382
645 645 1 0.0000 16.993 1.128 5.679
646 646 1 0.0000 31.251 26.408 6.211
647 647 1 0.0000 40.379 46.287 28.140
648 648 1 0.0000 20.001 24.181 8.769
649 649 1 0.0000 10.137 48.854 12.751
650 650 1 0.0000 -4.408 -4.304 -2.353
651 651 1 0.0000 12.222 6.788 2.065
652 652 1 0.0000 40.135 13.367 32.095
653 653 1 0.0000 16.645 1.845 8.790
654 654 1 0.0000 33.336 5.628 22.829
655 655 1 0.0000 24.224 10.860 7.836
656 656 1 0.0000 31.150 7.781 35.523
657 657 1 0.0000 20.902 6.565 1.816
658 658 1 0.0000 1.938 -2.924 2.679
659 659 1 0.0000 33.066 24.190 23.034
660 660 1 0.0000 7.489 44.002 40.441
661 661 1 0.0000 16.666 43.598 31.011
662 662 1 0.0000 32.506 29.106 20.597
663 663 1 0.0000 -0.473 15.375 47.328
664 664 1 0.0000 43.774 43.845 1.609
665 665 1 0.0000 -1.876 14.017 32.130
666 666 1 0.0000 6.973 16.648 1.140
667 667 1 0.0000 0.555 13.673 37.716
668 668 1 0.0000 -1.830 12.177 38.640
669 669 1 0.0000 27.093 41.195 20.053
670 670 1 0.0000 -3.146 23.347 41.099
671 671 1 0.0000 -8.039 35.092 1.768
672 672 1 0.0000 0.866 32.781 2.841
673 673 1 0.0000 -0.227 -5.388 4.360
674 674 1 0.0000 -5.154 20.902 42.007
675 675 1 0.0000 -1.941 16.039 40.208
676 676 1 0.0000 39.318 33.353 3.445
677 677 1 0.0000 -0.704 2.450 -0.206
678 678 1 0.0000 10.747 18.594 -7.540
679 679 1 0.0000 -1.626 18.321 -1.539
680 680 1 0.0000 34.680 17.953 17.720
681 681 1 0.0000 0.097 21.787 37.674
682 682 1 0.0000 21.201 14.503 3.194
683 683 1 0.0000 31.055 28.262 29.682
684 684 1 0.0000 23.601 4.658 0.962
685 685 1 0.0000 19.496 14.319 30.346
686 686 1 0.0000 7.280 20.181 4.261
687 687 1 0.0000 5.639 42.220 15.604
688 688 1 0.0000 5.487 18.746 6.064
689 689 1 0.0000 41.600 41.654 12.149
690 690 1 0.0000 -5.359 31.463 -2.145
691 691 1 0.0000 32.850 22.566 24.843
692 692 1 0.0000 23.912 41.962 21.306
693 693 1 0.0000 9.761 22.617 3.347
694 694 1 0.0000 35.455 14.985 27.868
695 695 1 0.0000 20.043 1.365 15.255
696 696 1 0.0000 39.241 27.643 20.311
697 697 1 0.0000 25.024 21.362 7.096
698 698 1 0.0000 33.685 16.680 29.471
699 699 1 0.0000 33.313 8.685 6.692
700 700 1 0.0000 13.832 30.622 19.169
701 701 1 0.0000 2.882 36.224 3.303
702 702 1 0.0000 -5.887 36.704 -2.189
703 703 1 0.0000 11.127 23.169 21.249
704 704 1 0.0000 28.076 1.174 1.751
705 705 1 0.0000 30.549 23.536 5.835
706 706 1 0.0000 37.231 29.586 18.524
707 707 1 0.0000 40.488 24.502 40.167
708 708 1 0.0000 40.514 -0.703 27.503
709 709 1 0.0000 18.250 8.218 36.935
710 710 1 0.0000 32.719 15.858 27.803
711 711 1 0.0000 30.441 16.893 7.058
712 712 1 0.0000 23.657 5.444 37.201
713 713 1 0.0000 25.051 19.125 43.240
714 714 1 0.0000 20.115 -0.721 20.810
715 715 1 0.0000 3.303 41.610 17.814
716 716 1 0.0000 39.462 28.667 22.403
717 717 1 0.0000 26.310 17.762 7.822
718 718 1 0.0000 11.382 47.461 45.431
719 719 1 0.0000 31.217 47.556 23.310
720 720 1 0.0000 30.597 5.519 12.054
721 721 1 0.0000 37.198 0.374 23.538
722 722 1 0.0000 43.334 3.656 25.098
723 723 1 0.0000 43.187 0.122 27.083
724 724 1 0.0000 45.511 27.147 39.632
725 725 1 0.0000 33.158 26.329 22.533
726 726 1 0.0000 17.093 -1.761 21.448
727 727 1 0.0000 18.731 15.413 26.187
728 728 1 0.0000 21.319 11.066 36.912
729 729 1 0.0000 23.504 12.528 39.812
730 730 1 0.0000 43.591 31.621 24.179
731 731 1 0.0000 25.577 18.085 40.640
732 732 1 0.0000 -0.642 38.742 14.085
733 733 1 0.0000 0.426 38.707 16.762
734 734 1 0.0000 16.731 21.110 -5.778
735 735 1 0.0000 41.500 39.527 27.503
736 736 1 0.0000 32.640 16.121 44.922
737 737 1 0.0000 -3.757 31.791 45.316
738 738 1 0.0000 0.149 0.297 12.970
739 739 1 0.0000 9.462 25.711 20.250
740 740 1 0.0000 29.682 15.120 5.538
741 741 1 0.0000 42.406 -7.609 29.281
742 742 1 0.0000 27.021 12.485 38.359
743 743 1 0.0000 24.698 10.452 23.455
744 744 1 0.0000 33.001 19.834 26.097
745 745 1 0.0000 -1.369 34.266 -4.293
746 746 1 0.0000 29.151 20.139 7.300
747 747 1 0.0000 27.841 12.641 28.294
748 748 1 0.0000 30.335 17.150 30.442
749 749 1 0.0000 -1.506 11.083 12.331
750 750 1 0.0000 13.814 19.191 41.687
751 751 1 0.0000 13.247 25.323 24.375
752 752 1 0.0000 11.638 9.046 15.610
753 753 1 0.0000 32.966 30.282 37.311
754 754 1 0.0000 -2.169 41.318 6.864
755 755 1 0.0000 45.794 43.664 11.610
756 756 1 0.0000 39.111 15.097 25.953
757 757 1 0.0000 -3.161 30.893 41.292
758 758 1 0.0000 17.038 2.371 20.645
759 759 1 0.0000 6.129 11.824 34.123
760 760 1 0.0000 1.702 33.546 -1.633
761 761 1 0.0000 41.565 44.349 36.081
762 762 1 0.0000 -3.579 24.935 -2.551
763 763 1 0.0000 38.971 37.630 24.054
764 764 1 0.0000 40.546 -3.356 33.864
765 765 1 0.0000 43.130 42.693 34.765
766 766 1 0.0000 10.525 44.168 12.808
767 767 1 0.0000 36.402 43.850 18.196
768 768 1 0.0000 37.396 40.605 16.645
769 769 1 0.0000 15.121 5.185 41.663
770 770 1 0.0000 20.351 1.614 21.494
771 771 1 0.0000 2.635 4.283 13.375
772 772 1 0.0000 44.852 1.303 29.310
773 773 1 0.0000 35.543 23.178 24.341
774 774 1 0.0000 30.671 30.661 -5.690
775 775 1 0.0000 33.979 23.257 33.210
776 776 1 0.0000 6.679 14.043 36.857
777 777 1 0.0000 40.339 7.313 14.734
778 778 1 0.0000 6.470 45.345 6.014
779 779 1 0.0000 33.454 35.137 17.406
780 780 1 0.0000 36.903 39.602 13.298
781 781 1 0.0000 14.083 0.333 10.358
782 782 1 0.0000 45.582 12.186 18.527
783 783 1 0.0000 17.910 3.725 24.146
784 784 1 0.0000 27.871 19.567 9.867
785 785 1 0.0000 20.981 20.640 20.777
786 786 1 0.0000 13.793 35.961 4.196
787 787 1 0.0000 42.733 37.700 19.510
788 788 1 0.0000 38.816 7.428 17.532
789 789 1 0.0000 17.026 18.636 37.981
790 790 1 0.0000 9.526 24.663 42.452
791 791 1 0.0000 32.702 35.439 -4.194
792 792 1 0.0000 6.905 15.996 19.525
793 793 1 0.0000 30.624 11.515 29.083
794 794 1 0.0000 21.172 37.937 9.546
795 795 1 0.0000 34.935 9.037 20.531
796 796 1 0.0000 27.786 19.295 39.952
797 797 1 0.0000 36.072 22.690 30.637
798 798 1 0.0000 30.578 35.971 -7.851
799 799 1 0.0000 7.102 26.627 -5.222