LAMMPS Description # full

5 atoms
4 bonds
3 angles
2 dihedrals
1 impropers

5 atom types
4 bond types
3 angle types
1 dihedral types
1 improper types

-12.34 14.06 xlo xhi # 0.00 5.84
-8.86 17.54 ylo yhi # 0.00 5.84
-12.13 14.27 zlo zhi # 0.00 5.84

Masses

1 12.011 # C Carboxylic Acid C 133
2 15.999 # =O Carboxylic Acid O 134
3 15.999 # -O- Carboxylic Acid O 135
4 1.008 # H Carboxylic Acid H 136
5 15.035 # CH3 Acetic Acid C 137

Pair Coeffs

1 0.1050 3.7500
2 0.2100 2.9600
3 0.1700 3.0000
4 0.0000 0.0000
5 0.1600 3.9100

Bond Coeffs

1  570.0 1.229
2  469.0 1.4
3  553.0 0.945
4  450.0 1.364

Angle Coeffs

1 70.0 117.0
2 80.0 126.0
3 35.0 113.0

Dihedral Coeffs

1  0.0 1.8 0.0 0.0

Improper Coeffs

1 10.5 -1 2

Atoms

1 1 5 0.0800 -0.366 3.572 0.126
2 1 1 0.5500 0.528 4.383 0.835
3 1 2 -0.5000 0.651 5.577 0.569
4 1 3 -0.5800 1.302 3.896 1.847
5 1 4 0.4500 2.169 4.258 1.953

Bonds

1 2 1 2
2 1 2 3
3 4 2 4
4 3 4 5

Angles

1 2 3 2 4
2 1 3 2 1
3 3 2 4 5

Dihedrals

1 1 3 2 4 5
2 1 1 2 4 5

Impropers

1 1 1 3 2 4

