ITEM: TIMESTEP
0
ITEM: NUMBER OF ATOMS
1200
ITEM: BOX BOUNDS pp pp pp
-1.4399999999999999e+00 2.7379999999999999e+01
-1.4199999999999999e+00 2.7399999999999999e+01
-1.5900000000000001e+00 2.7230000000000000e+01
ITEM: ATOMS id xu yu zu
1 14.531 11.81 14.229
2 13.803 11.883 14.91
3 14.893 10.888 14.087
4 25.787 5.447 0.07
5 25.247 6.241 -0.208
6 26.773 5.602 0.138
7 5.459 -0.118 23.196
8 6.35 -0.312 23.605
9 5.482 0.43 22.36
10 25.894 23.329 5.986
11 25.128 22.926 5.487
12 26.785 22.907 5.818
13 8.95 17.336 20.351
14 8.769 16.52 19.802
15 8.216 18.015 20.364
16 11.561 -0.057 8.295
17 10.806 0.474 8.68
18 12.214 -0.418 8.961
19 14.309 17.573 8.838
20 14.69 17.662 7.918
21 14.228 16.637 9.18
22 23.376 0.151 2.863
23 22.646 0.521 3.436
24 23.14 -0.672 2.347
25 11.203 11.565 -0.144
26 11.339 11.201 0.777
27 12.039 11.815 -0.633
28 14.668 17.062 26.024
29 14.196 17.622 26.704
30 14.363 17.187 25.08
31 -0.169 11.218 20.115
32 -0.564 11.947 20.673
33 0.733 11.415 19.729
34 5.869 22.721 2.81
35 5.819 23.43 2.106
36 5.602 23.011 3.729
37 20.068 5.663 19.846
38 20.757 6.373 19.993
39 19.692 5.254 20.678
40 17.343 20.383 14.126
41 16.862 20.696 14.945
42 17.666 19.437 14.155
43 5.702 8.804 14.095
44 6.134 7.904 14.165
45 5.454 9.228 14.966
46 2.546 14.413 11.406
47 3.008 15.239 11.73
48 3.091 13.575 11.445
49 20.008 11.687 6.037
50 20.87 12.025 5.658
51 19.638 10.869 5.595
52 8.445 11.323 8.858
53 8.126 12.204 8.51
54 9.364 11.055 8.567
55 3.102 22.78 14.472
56 2.612 22.885 13.606
57 2.932 23.497 15.149
58 14.338 25.614 23.191
59 15.055 25.759 22.509
60 13.833 26.434 23.462
61 17.181 5.794 8.983
62 17.204 4.916 8.505
63 17.487 6.581 8.448
64 14.146 2.991 -0.215
65 15.019 2.653 -0.566
66 14.061 3.001 0.781
67 2.865 17.596 25.753
68 2.29 17.419 26.552
69 3.49 16.857 25.503
70 16.999 8.832 26.022
71 17.219 8.59 25.077
72 17.653 8.514 26.708
73 26.119 26.024 23.347
74 26.457 26.219 22.427
75 25.231 25.565 23.389
76 22.908 14.404 11.202
77 22.377 14.222 12.03
78 23.877 14.6 11.349
79 5.769 5.457 5.946
80 4.916 5.898 5.666
81 6.606 5.935 5.678
82 8.749 5.562 20.448
83 9.326 5.707 19.644
84 7.861 6.021 20.426
85 20.444 23.242 0.134
86 20.423 22.242 0.152
87 19.649 23.679 -0.286
88 25.841 3.212 14.315
89 26.156 2.989 15.237
90 25.811 2.444 13.675
91 25.886 20.179 17.644
92 25.279 20.656 17.009
93 26.643 19.682 17.219
94 23.324 26.028 11.741
95 23.047 25.076 11.61
96 22.792 26.703 11.229
97 22.897 14.193 22.818
98 22.388 14.647 23.549
99 23.878 14.387 22.795
100 0.12 6.003 25.7
101 0.092 6.187 26.682
102 -0.212 5.101 25.425
103 5.818 8.73 2.54
104 5.865 9.408 3.273
105 5.607 7.797 2.833
106 17.606 26.088 5.827
107 17.409 25.142 6.083
108 16.857 26.577 5.381
109 14.573 2.839 17.604
110 14.445 2.084 16.961
111 14.208 3.722 17.306
112 -0.08 -0.131 8.324
113 0.8 -0.301 8.767
114 -0.72 0.432 8.845
115 5.753 19.834 14.296
116 6.612 20.329 14.425
117 4.925 20.353 14.505
118 26.027 14.221 3.171
119 25.085 14.267 2.839
120 26.695 14.739 2.635
121 0.156 23.168 22.754
122 0.625 22.576 23.41
123 -0.781 23.418 22.997
124 14.242 14.651 17.09
125 14.056 14.547 18.067
126 14.928 14.028 16.715
127 11.523 22.713 23.157
128 11.413 22.984 22.201
129 11.646 23.466 23.804
130 20.246 20.389 2.608
131 20.963 19.95 3.15
132 19.309 20.178 2.887
133 0.121 20.476 5.622
134 0.71 19.857 6.141
135 -0.831 20.184 5.528
136 3.178 2.683 17.286
137 2.929 3.288 16.53
138 2.539 2.675 18.056
139 8.699 26.245 8.476
140 9.394 25.526 8.512
141 7.843 26.036 8.948
142 17.538 0.022 23.31
143 17.343 0.78 22.688
144 16.991 -0.802 23.164
145 11.755 17.369 11.264
146 11.544 18.013 11.999
147 11.282 16.489 11.318
148 5.893 14.189 25.687
149 5.49 13.855 26.539
150 5.908 15.183 25.582
151 20.485 2.907 8.476
152 19.984 3.711 8.797
153 20.048 2.027 8.663
154 0.251 8.537 8.416
155 -0.285 9.368 8.268
156 0.034 8.032 9.252
157 5.745 25.804 19.842
158 6.608 25.873 20.342
159 4.938 26.131 20.333
160 3.221 0.096 -0.051
161 2.958 -0.617 0.599
162 2.466 0.521 -0.549
163 17.153 22.726 17.305
164 17.986 22.933 16.793
165 16.733 23.503 17.773
166 8.295 20.203 0.061
167 8.705 20.432 -0.821
168 8.935 19.882 0.76
169 14.551 8.851 23.308
170 14.379 7.876 23.445
171 14.296 9.208 22.409
172 5.806 11.199 22.92
173 6.067 12.022 22.415
174 5.417 11.36 23.827
175 14.343 8.336 5.928
176 14.705 9.133 6.412
177 14.178 8.467 4.951
178 23.094 5.739 17.644
179 23.269 6.587 17.143
180 22.799 4.965 17.084
181 8.302 8.651 17.194
182 9.009 8.222 16.632
183 8.625 9.064 18.046
184 11.528 20.02 19.85
185 10.683 20.288 20.311
186 12.37 20.209 20.356
187 11.689 25.944 14.726
188 11.668 25.121 14.159
189 11.224 26.742 14.341
190 11.362 2.612 2.717
191 11.132 3.569 2.54
192 12.087 2.464 3.389
193 8.878 14.139 5.765
194 8.1 14.177 6.391
195 8.958 14.911 5.134
196 25.705 2.799 3.14
197 26.695 2.741 3.269
198 25.408 3.105 2.236
199 19.986 17.393 23.34
200 19.654 17.533 22.407
201 20.877 16.945 23.415
202 2.601 17.412 8.462
203 2.541 16.618 9.066
204 3.503 17.841 8.408
205 5.681 17.01 17.087
206 5.345 17.931 16.891
207 6.265 16.93 17.894
208 11.432 14.472 2.544
209 12.075 13.748 2.792
210 11.073 15.006 3.31
211 23.158 25.998 -0.335
212 22.767 26.712 0.245
213 23.237 25.097 0.09
214 2.836 26.277 2.79
215 2.419 25.525 2.279
216 3.39 26.005 3.576
217 22.941 22.988 8.977
218 22.353 23.407 8.285
219 23.868 22.768 8.674
220 11.747 25.715 26.11
221 11.153 25.404 25.367
222 11.681 26.688 26.331
223 8.598 25.763 17.599
224 9.144 25.385 16.852
225 8.194 26.66 17.421
226 8.847 8.939 0.006
227 8.675 8.425 -0.834
228 8.413 8.572 0.829
229 22.74 11.609 25.788
230 23.002 11.927 26.7
231 23.421 11.045 25.32
232 17.227 11.706 17.592
233 16.992 12.074 16.693
234 17.653 10.801 17.586
235 14.736 0.074 20.294
236 14.55 -0.082 19.324
237 13.941 0.008 20.898
238 8.54 14.078 23.135
239 7.937 14.87 23.233
240 9.458 14.279 22.793
241 20.253 2.881 23.401
242 19.329 2.695 23.066
243 20.935 3.069 22.695
244 19.893 0.021 11.306
245 19.833 0.28 12.27
246 20.791 -0.3 11.005
247 26.068 17.114 -0.28
248 25.743 16.647 0.543
249 25.996 18.111 -0.263
250 8.45 3.172 23.123
251 9.356 3.031 23.521
252 8.13 2.442 22.518
253 25.718 -0.238 20.02
254 26.075 -0.355 20.947
255 26.014 0.593 19.549
256 19.903 14.355 8.873
257 20.068 13.757 8.089
258 20.545 15.115 8.974
259 5.865 6.08 11.398
260 6.512 5.334 11.554
261 4.914 5.877 11.629
262 19.841 25.978 17.417
263 20.158 26.432 16.584
264 20.517 25.398 17.871
265 0.22 20.45 20.135
266 -0.292 20.068 19.366
267 0.072 19.999 21.015
268 17.286 23.018 3.236
269 16.823 23.772 2.77
270 17.762 22.373 2.639
271 3.02 8.409 5.992
272 2.206 8.212 5.446
273 3.42 9.315 5.852
274 14.119 23.103 5.965
275 14.456 22.193 5.725
276 14.652 23.867 5.601
277 25.828 11.295 11.279
278 25.453 12.219 11.344
279 26.527 11.067 11.957
280 26.12 8.844 17.059
281 26.231 7.852 17.12
282 25.457 9.24 17.693
283 11.651 8.46 8.367
284 11.647 9.46 8.386
285 11.283 8.016 9.184
286 17.571 14.629 0.008
287 17.16 14.254 0.839
288 17.141 14.343 -0.848
289 5.914 17.046 5.975
290 5.942 16.981 4.978
291 5.434 17.845 6.338
292 25.902 17.04 14.158
293 26.302 16.849 15.054
294 25.603 17.983 14.014
295 3.159 20.35 23.191
296 3.276 19.577 22.568
297 2.211 20.59 23.403
298 17.553 3.068 11.374
299 16.743 3.507 11.762
300 17.575 2.071 11.445
301 19.994 8.448 3.119
302 19.675 8.571 2.18
303 20.848 8.916 3.346
304 5.604 23.354 11.42
305 5.853 23.193 12.375
306 5.834 22.615 10.787
307 3.231 5.711 14.461
308 2.746 6.504 14.832
309 2.669 5.075 13.933
310 22.786 2.68 20.052
311 23.699 2.654 19.645
312 22.677 3.312 20.819
313 -0.159 11.476 2.567
314 -0.198 12.35 3.051
315 0.357 10.754 3.028
316 8.314 0.029 5.634
317 8.671 0.647 6.335
318 8.951 -0.676 5.321
319 22.826 8.597 -0.27
320 23.361 9.435 -0.165
321 22.975 7.904 0.435
322 8.29 20.182 11.499
323 8.88 20.868 11.072
324 8.766 19.467 12.011
325 -0.055 0.013 17.643
326 -0.021 -0.85 17.139
327 0.075 0.837 17.09
328 22.923 16.988 3.018
329 23.863 17.061 2.687
330 22.376 17.822 2.94
331 20.104 22.736 20.317
332 19.382 23.397 20.116
333 21.031 23.03 20.084
334 2.542 5.656 25.934
335 3.161 5.488 25.166
336 2.943 6.147 26.707
337 11.594 5.686 23.395
338 10.857 6.304 23.123
339 12.129 5.3 22.644
340 2.949 14.495 16.951
341 2.058 14.654 17.377
342 3.638 14.077 17.544
343 25.944 25.96 9.001
344 26.321 26.672 8.409
345 25.543 25.176 8.526
346 17.405 8.829 14.692
347 17.39 7.83 14.674
348 17.077 9.277 13.86
349 26.171 11.259 23.044
350 25.754 11.572 23.897
351 25.883 11.75 22.221
352 22.814 3.008 5.996
353 23.799 3.1 6.141
354 22.548 2.538 5.154
355 11.472 0.094 17.63
356 11.942 0.69 16.98
357 11.167 -0.784 17.262
358 11.497 14.073 14.524
359 12.379 14.481 14.289
360 10.705 14.673 14.414
361 3.041 11.618 2.576
362 3.523 11.137 3.308
363 2.081 11.826 2.761
364 17.184 19.887 25.751
365 17.869 20.525 25.4
366 16.819 20.105 26.656
367 11.555 8.611 19.819
368 12.185 9.175 20.351
369 10.841 8.151 20.347
370 22.947 11.453 8.977
371 23.07 12.39 8.652
372 23.145 10.738 8.306
373 20.03 0.048 25.613
374 20.161 -0.86 26.009
375 20.326 0.812 26.186
376 5.972 22.78 -0.093
377 4.975 22.707 -0.061
378 6.343 23.675 0.155
379 20.207 14.079 20.04
380 20.943 14.755 19.993
381 19.367 14.392 20.484
382 5.524 11.268 11.581
383 5.279 12.147 11.171
384 6.487 11.166 11.83
385 20.442 19.948 8.58
386 19.487 19.696 8.424
387 20.588 20.873 8.932
388 0.134 25.946 14.078
389 -0.823 25.722 14.261
390 0.69 26.139 14.887
391 14.34 5.603 3.192
392 13.763 6.335 2.83
393 15.123 5.353 2.622
394 25.592 22.974 25.885
395 25.955 23.229 26.781
396 26.261 22.959 25.141
397 14.204 22.909 14.662
398 14.033 23.823 14.296
399 14.989 22.43 14.268
400 23.294 17.538 14.502
401 23.409 16.958 13.695
402 22.46 17.376 15.03
403 8.49 0.076 14.097
404 8.49 -0.846 14.485
405 8.956 0.77 14.644
406 11.737 5.786 11.24
407 10.78 5.501 11.183
408 12.065 6.004 12.159
409 3.042 14.179 0.221
410 2.055 14.166 0.058
411 3.549 14.881 -0.279
412 -0.221 11.615 17.025
413 0.682 11.221 16.859
414 -0.461 11.745 17.987
415 0.256 25.704 26.025
416 0.333 26.683 26.212
417 -0.589 25.42 25.571
418 0.107 16.968 11.635
419 0.519 17.811 11.981
420 -0.625 17.093 10.965
421 5.521 2.95 8.393
422 5.68 2.028 8.746
423 6.09 3.667 8.796
424 0.224 5.897 11.284
425 -0.593 6.388 11.583
426 0.369 5.006 11.714
427 8.333 11.675 26.023
428 9.157 12.219 25.87
429 8.446 10.687 25.915
430 2.835 26.238 11.71
431 2.141 25.878 11.088
432 3.669 25.691 11.783
433 17.59 3.015 26.077
434 17.496 2.832 25.099
435 16.786 2.799 26.632
436 14.339 14.67 0.233
437 15.154 14.095 0.304
438 13.734 14.462 -0.536
439 6.022 2.697 25.775
440 6.21 3.357 26.502
441 5.058 2.591 25.531
442 11.84 0.029 -0.169
443 11.571 0.65 0.567
444 11.171 -0.679 -0.397
445 19.88 0.012 5.967
446 19.847 0.138 4.976
447 20.79 -0.151 6.347
448 0.156 8.412 23.274
449 0.094 9.388 23.485
450 -0.25 8.136 22.403
451 8.79 17.614 2.92
452 7.812 17.448 3.044
453 9.334 16.81 2.681
454 11.205 17.439 17.258
455 11.441 16.571 16.822
456 11.936 17.862 17.792
457 8.535 23.365 25.801
458 9.267 23.306 26.479
459 8.133 22.491 25.528
460 3.002 22.95 20.491
461 2.76 23.9 20.296
462 2.884 22.312 19.73
463 17.177 17.629 8.638
464 16.612 16.868 8.319
465 18.083 17.375 8.979
466 11.609 19.891 8.442
467 11.817 20.83 8.166
468 11.155 19.796 9.328
469 23.165 20.074 -0.324
470 22.89 21.012 -0.114
471 23.108 19.43 0.439
472 14.064 20.262 23.04
473 14.58 20.257 23.896
474 14.582 19.998 22.226
475 0.23 20.339 8.86
476 0.146 19.343 8.837
477 -0.376 20.835 8.239
478 17.024 11.364 2.711
479 16.876 11.916 3.532
480 17.973 11.302 2.402
481 19.967 8.912 14.526
482 20.518 8.986 13.695
483 20.032 8.038 15.006
484 26.114 6.064 5.836
485 26.106 5.283 6.46
486 25.588 5.944 4.994
487 17.396 25.601 20.234
488 16.499 25.94 20.517
489 17.976 26.267 19.765
490 -0.332 -0.1 2.797
491 -0.022 0.847 2.717
492 0.354 -0.747 3.131
493 8.291 5.801 2.889
494 8.756 5.261 2.189
495 8.889 6.229 3.567
496 5.79 14.652 8.386
497 4.967 14.556 8.945
498 6.533 14.019 8.605
499 22.852 23.157 17.016
500 23.484 23.78 17.476
501 22.827 22.226 17.381
502 14.441 11.186 20.075
503 13.554 11.645 20.13
504 15.231 11.751 20.312
505 14.701 8.444 11.489
506 13.999 8.244 12.173
507 14.527 9.247 10.919
508 5.553 20.391 25.749
509 5.222 19.876 26.539
510 6.516 20.25 25.519
511 2.99 2.627 -0.224
512 3.447 2.802 0.648
513 2.208 3.216 -0.424
514 26.288 8.697 8.666
515 25.818 8 9.206
516 25.702 9.239 8.063
517 11.805 22.852 5.668
518 10.937 22.459 5.972
519 11.84 23.851 5.651
520 14.305 5.449 25.805
521 15.226 5.602 26.163
522 13.695 6.24 25.84
523 -0.146 17.395 0.308
524 -0.24 17.924 -0.536
525 0.386 16.553 0.228
526 11.64 11.536 5.425
527 10.814 11.045 5.7
528 12.128 12 6.165
529 8.442 11.814 14.352
530 8.631 11.142 13.636
531 8.863 11.625 15.239
532 11.236 2.822 20.37
533 11.787 3.652 20.464
534 11.558 2.171 19.683
535 20.318 25.717 2.64
536 20.841 26.442 3.089
537 19.359 25.648 2.916
538 5.644 14.085 20.084
539 6.113 14.679 19.43
540 5.534 14.463 21.003
541 22.925 5.733 14.74
542 22.426 5.401 13.94
543 23.811 6.156 14.547
544 8.391 2.632 11.525
545 8.658 3.118 12.358
546 8.887 2.896 10.698
547 19.859 20.167 11.357
548 20.437 20.982 11.385
549 20.221 19.369 11.839
550 25.924 -0.266 11.289
551 25.536 0.637 11.103
552 26.348 -0.371 12.189
553 17.222 2.58 14.232
554 16.988 2.699 15.197
555 17.661 3.367 13.798
556 2.763 8.764 23.369
557 2.461 9.157 22.5
558 3.421 8.015 23.293
559 -0.03 14.241 14.722
560 -0.379 15.166 14.577
561 0.409 13.819 13.928
562 0.021 2.855 20.527
563 0.599 2.315 19.916
564 -0.62 3.475 20.074
565 22.737 14.567 5.799
566 23.597 15.054 5.951
567 22.829 13.605 5.541
568 22.728 5.895 2.822
569 23.529 6.483 2.933
570 22.905 4.913 2.89
571 8.396 25.871 -0.247
572 8.992 25.153 0.113
573 8.547 26.783 0.134
574 11.23 17.459 -0.1
575 11.814 16.973 -0.75
576 11.538 17.439 0.851
577 14.357 19.935 17.029
578 14.376 19.672 17.994
579 14.493 20.909 16.849
580 2.728 11.211 20.114
581 2.781 11.621 21.025
582 3.137 11.75 19.378
583 23.019 19.989 20.476
584 23.261 20.959 20.461
585 22.883 19.568 19.579
586 17.176 -0.292 8.476
587 18.124 0.021 8.421
588 16.572 0.271 9.039
589 26.178 8.907 25.946
590 26.432 7.94 25.974
591 25.197 9.089 25.887
592 14.567 14.219 11.27
593 14.903 15.117 11.555
594 13.756 13.891 11.755
595 2.808 -0.025 8.993
596 2.906 -0.83 8.407
597 2.931 0.855 8.536
598 8.814 23.36 8.575
599 8.768 22.611 7.914
600 8.353 23.191 9.446
601 5.691 6.004 17.037
602 5.801 5.031 16.835
603 5.798 6.255 17.999
604 19.819 14.45 25.959
605 20.426 14.587 26.742
606 20.272 14.189 25.107
607 8.803 17.262 14.727
608 9.082 17.943 14.05
609 8.05 16.666 14.449
610 14.626 25.787 11.767
611 14.878 25.881 10.804
612 13.723 26.14 12.01
613 17.104 17.017 22.921
614 17.465 17.749 22.343
615 17.303 17.105 23.897
616 5.652 20.078 3.207
617 5.075 20.592 2.573
618 6.563 19.847 2.865
619 25.887 14.591 19.87
620 26.392 14.968 20.647
621 25.528 13.667 20.001
622 5.832 26.097 6.074
623 5.986 26.546 5.194
624 5.473 25.165 6.022
625 14.459 5.53 14.144
626 14.791 6.472 14.097
627 13.977 5.288 14.986
628 19.817 17.317 14.395
629 20.358 17.747 15.118
630 20.342 16.808 13.713
631 2.612 19.966 17.182
632 3.551 19.827 16.867
633 2.483 20.724 17.822
634 26.083 17.03 19.979
635 26.546 17.438 20.765
636 25.178 17.404 19.773
637 2.795 25.651 23.25
638 2.235 26.479 23.235
639 3.615 25.678 22.677
640 17.497 8.727 5.485
641 17.858 8.649 6.414
642 16.516 8.559 5.391
643 8.698 -0.32 26.083
644 9.279 0.466 26.292
645 7.959 -0.145 25.432
646 20.139 8.589 17.641
647 19.518 8.18 16.973
648 20.86 9.166 17.257
649 22.814 0.224 23.194
650 22.875 0.053 22.211
651 23.473 -0.277 23.757
652 16.938 5.745 23.003
653 17.349 6.367 23.669
654 17.584 5.179 22.49
655 17.402 19.948 5.51
656 16.61 19.751 6.089
657 17.86 20.818 5.692
658 11.639 11.411 23.372
659 11.221 12.311 23.248
660 11.722 10.859 22.542
661 20.45 11.747 -0.042
662 19.808 11.55 -0.783
663 20.259 11.284 0.824
664 0.295 26.042 -0.169
665 0.165 25.1 0.139
666 -0.461 26.666 0.03
667 8.901 5.744 8.893
668 9.067 5.511 7.935
669 7.968 6.035 9.107
670 3.215 8.766 11.563
671 2.985 7.796 11.647
672 2.445 9.374 11.372
673 20.067 17.052 5.521
674 19.899 18.032 5.415
675 20.551 16.788 6.355
676 23.332 5.94 8.782
677 23.436 5.263 8.054
678 22.395 6.087 9.1
679 26.163 23.178 14.654
680 25.367 23.701 14.349
681 26.278 22.283 14.223
682 3.041 22.744 5.84
683 2.073 22.802 5.595
684 3.531 23.616 5.856
685 25.775 20.195 26.253
686 25.905 20.991 25.662
687 26.127 19.331 25.893
688 23.001 25.858 14.065
689 22.348 26.395 14.6
690 23.813 25.554 14.562
691 11.676 5.636 0.298
692 10.754 5.379 0.01
693 12.151 6.275 -0.308
694 6.002 2.902 14.673
695 6.144 3.348 13.79
696 5.144 2.396 14.764
697 22.767 25.818 25.761
698 23.127 26.742 25.635
699 23.268 25.248 26.412
700 0.032 14.389 6.118
701 -0.381 15.177 5.661
702 0.348 13.66 5.511
703 17.277 8.809 20.489
704 18.141 8.601 20.03
705 16.453 8.525 19.999
706 14.543 20.418 3.102
707 15.123 19.785 2.589
708 13.56 20.313 2.954
709 5.85 23.351 17.467
710 5.044 23.294 16.878
711 6.397 22.517 17.526
712 8.381 20.231 23.286
713 9.261 19.846 23.564
714 8.294 20.44 22.312
715 5.704 17.334 22.705
716 4.97 17.382 23.383
717 6.616 17.155 23.074
718 17.145 23.378 11.557
719 18.074 23.239 11.214
720 16.653 22.545 11.81
721 14.434 23.34 25.724
722 14.491 23.405 26.72
723 14.301 22.417 25.363
724 20.257 6.108 11.559
725 20.402 5.451 12.298
726 19.858 5.731 10.723
727 17.602 0.053 0.165
728 16.776 0.559 0.41
729 17.494 -0.611 -0.575
730 14.239 25.741 8.399
731 15.222 25.657 8.564
732 13.765 26.409 8.973
733 11.21 0.151 11.464
734 11.304 -0.812 11.716
735 12.067 0.662 11.401
736 5.721 8.49 25.618
737 6.606 8.524 26.082
738 4.964 8.922 26.108
739 23.35 8.69 11.333
740 23.11 7.813 11.749
741 22.702 9.433 11.498
742 5.408 5.775 -0.027
743 5.876 5.156 0.603
744 6.006 6.36 -0.575
745 0.292 2.708 14.301
746 -0.568 2.237 14.495
747 0.275 3.7 14.43
748 17.377 0.32 17.422
749 17.49 -0.524 17.948
750 17.005 0.204 16.502
751 -0.2 20.354 2.649
752 -0.04 19.371 2.562
753 0.24 20.791 3.434
754 8.517 0.053 19.844
755 8.046 0.385 20.661
756 9.372 -0.438 20.013
757 11.228 11.644 17.445
758 11.918 12.267 17.078
759 11.436 10.67 17.348
760 0.186 3.126 5.945
761 0.006 2.213 6.31
762 -0.192 3.306 5.036
763 14.701 2.922 5.963
764 14.468 2.054 5.526
765 14.057 3.67 5.802
766 26.029 11.219 5.61
767 26.602 11.669 6.295
768 25.177 11.693 5.386
769 17.223 23.053 -0.35
770 16.885 23.772 0.258
771 17.763 22.337 0.092
772 8.474 0.212 2.652
773 9.44 0.337 2.877
774 8.021 -0.549 3.116
775 25.692 2.695 23.236
776 26.57 2.303 22.96
777 25.546 3.647 22.966
778 25.868 20.52 11.485
779 26.512 20.026 10.9
780 25.428 19.972 12.196
781 20.021 14.673 17.476
782 19.695 13.73 17.529
783 20.801 14.823 16.867
784 14.742 17.229 20.282
785 14.243 18.061 20.526
786 14.241 16.582 19.708
787 20.241 0.313 14.565
788 19.315 -0.056 14.494
789 20.961 -0.257 14.168
790 2.937 11.767 8.388
791 3.61 11.064 8.616
792 2.098 11.75 8.932
793 0.127 6.082 23.15
794 -0.717 5.98 22.624
795 0.59 5.228 23.388
796 -0.211 17.18 17.026
797 -0.239 18.116 17.375
798 0.45 16.576 17.471
799 2.586 0.122 20.015
800 2.563 -0.388 20.875
801 3.497 0.266 19.628
802 3.164 5.548 20.205
803 2.335 5.43 20.751
804 3.146 6.313 19.561
805 26.257 11.681 14.42
806 25.992 10.95 15.048
807 25.558 11.951 13.758
808 11.569 20.308 3.209
809 11.788 19.357 2.992
810 11.224 20.852 2.444
811 25.703 0.263 0.064
812 25.958 -0.409 0.76
813 26.146 0.146 -0.825
814 16.948 14.388 11.429
815 17.494 15.214 11.292
816 17.429 13.624 11.86
817 3.238 20.157 5.768
818 2.713 20.607 6.49
819 2.694 19.754 5.032
820 14.233 26.217 -0.131
821 15.227 26.211 -0.021
822 13.766 25.379 0.152
823 20.517 23.119 25.871
824 19.817 23.185 25.16
825 20.183 22.858 26.777
826 3.104 0.037 6.04
827 3.386 0.217 5.097
828 2.155 -0.254 6.154
829 5.876 11.189 0.012
830 6.418 11.919 -0.405
831 4.997 11.474 0.394
832 11.765 8.506 26.162
833 11.17 7.938 25.592
834 11.646 9.493 26.053
835 22.735 25.94 5.923
836 22.885 25.492 5.042
837 23.541 26.375 6.325
838 -0.175 23.17 3.17
839 0.786 22.896 3.202
840 -0.612 23.096 2.274
841 0.336 17.19 26
842 -0.02 18.081 26.283
843 -0.316 16.6 25.524
844 8.891 22.802 20.118
845 7.91 22.611 20.075
846 9.134 23.749 20.324
847 2.987 0.041 26.274
848 2.095 0.355 25.95
849 3.564 -0.396 25.584
850 17.176 5.66 5.442
851 16.612 5.576 6.264
852 18.084 6.055 5.585
853 20.383 2.738 -0.249
854 20.625 2.738 0.721
855 19.509 3.169 -0.472
856 8.4 2.642 5.862
857 8.25 3.627 5.947
858 9.286 2.376 5.481
859 19.891 11.553 19.954
860 19.81 11.658 20.945
861 20.815 11.37 19.617
862 19.861 20.337 23.106
863 19.955 19.556 22.49
864 20.701 20.623 23.567
865 11.843 2.747 14.314
866 11.757 3.496 14.97
867 10.981 2.402 13.943
868 5.95 -0.112 11.245
869 5.403 -0.734 11.804
870 5.938 0.846 11.533
871 8.407 14.382 11.791
872 9.284 13.902 11.812
873 8.245 14.943 10.979
874 23.261 20.224 11.813
875 23.021 19.31 11.486
876 22.881 20.982 11.283
877 -0.139 2.559 11.465
878 0.416 3.041 10.787
879 -0.277 3.045 12.329
880 23.093 11.254 23.28
881 22.238 11.426 22.79
882 23.831 11.901 23.093
883 17.438 17.607 17.218
884 16.799 17.476 17.976
885 17.634 16.789 16.677
886 5.453 8.811 20.231
887 5.506 7.92 19.78
888 6.331 9.204 20.506
889 14.314 17.027 2.661
890 14.841 16.863 3.495
891 14.071 17.982 2.489
892 25.777 26.141 17.535
893 25.687 25.145 17.532
894 26.344 26.522 16.805
895 11.331 26.141 2.666
896 11.498 25.173 2.478
897 11.752 26.493 3.502
898 14.618 14.159 5.908
899 13.648 14.241 6.135
900 14.961 14.827 5.248
901 2.772 17.47 14.697
902 2.136 17.001 14.084
903 3.737 17.401 14.446
904 8.516 11.297 2.642
905 8.782 12.23 2.399
906 8.638 11.055 3.605
907 14.194 5.707 8.924
908 14.757 4.982 8.528
909 14.275 6.601 8.484
910 14.301 11.191 2.932
911 14.317 11.863 3.672
912 14.608 11.527 2.042
913 25.685 5.83 26.18
914 25.498 5.865 25.198
915 26.624 5.596 26.429
916 26.029 16.978 23.197
917 25.379 17.047 22.441
918 26.4 17.847 23.524
919 11.732 22.831 17.101
920 12.115 23.494 17.745
921 10.734 22.837 17.025
922 -0.068 11.711 0.298
923 0.402 12.118 -0.485
924 -0.334 10.753 0.187
925 17.262 11.501 11.173
926 18.128 11.713 11.626
927 16.481 11.367 11.783
928 22.908 14.201 14.659
929 23.436 13.828 13.896
930 22.819 15.197 14.671
931 23.165 8.399 22.821
932 23.618 8.546 23.7
933 22.379 8.991 22.641
934 0.032 23.404 11.587
935 0.163 23.003 10.681
936 -0.196 22.755 12.313
937 22.875 26.194 20.004
938 22.571 25.815 20.878
939 23.716 25.798 19.635
940 22.939 8.364 19.985
941 23.905 8.619 20.029
942 22.318 8.953 20.503
943 -0.347 8.62 14.331
944 0.367 8.495 13.642
945 -0.02 8.821 15.254
946 26.032 17.019 8.435
947 25.096 17.13 8.769
948 26.679 17.722 8.731
949 11.639 14.418 26.274
950 11.089 13.665 25.913
951 11.854 15.143 25.62
952 16.977 14.348 20.33
953 17.473 13.634 19.837
954 17.422 15.244 20.35
955 20.062 6.044 0.191
956 20.352 5.187 0.617
957 20.104 6.06 -0.808
958 23.064 22.861 23.354
959 23.399 22.51 22.479
960 22.699 23.792 23.329
961 -0.312 5.8 2.713
962 0.183 6.58 3.096
963 0.129 4.911 2.837
964 14.109 0.104 2.719
965 14.106 -0.325 3.622
966 15.011 0.221 2.304
967 23.035 14.087 -0.151
968 23.857 14.409 0.317
969 22.27 14.731 -0.166
970 0.293 11.335 5.698
971 -0.06 11.471 6.623
972 -0.234 11.774 4.97
973 3.205 -0.148 14.439
974 2.427 -0.639 14.048
975 3.014 0.787 14.74
976 3.23 2.844 2.95
977 2.835 3.714 2.655
978 2.581 2.088 3.04
979 17.621 23.074 8.778
980 17.209 23.822 8.259
981 17.042 22.267 8.899
982 23.173 -0.08 8.319
983 23.254 -0.715 9.087
984 22.736 0.794 8.53
985 0.267 8.855 -0.11
986 0.202 8.522 0.83
987 -0.469 8.559 -0.72
988 20.385 2.721 17.528
989 19.39 2.731 17.623
990 20.742 3.193 16.721
991 11.69 6.079 17.325
992 12.002 5.383 16.677
993 10.89 5.828 17.87
994 17.61 11.387 25.863
995 16.778 10.833 25.897
996 17.483 12.361 26.048
997 17.225 11.334 8.938
998 16.596 12.039 8.61
999 18.051 11.208 8.388
1000 25.783 23.016 3.202
1001 26.085 23.904 2.855
1002 25.939 22.242 2.589
1003 2.99 14.676 5.973
1004 2.962 13.727 6.288
1005 2.693 14.823 5.03
1006 2.803 20.515 -0.057
1007 3.094 19.904 -0.793
1008 2.748 20.098 0.85
1009 6.07 19.995 8.604
1010 5.329 19.654 9.182
1011 5.892 20.868 8.15
1012 8.651 14.264 16.965
1013 8.218 13.81 17.743
1014 9.066 15.152 17.164
1015 8.61 8.304 5.668
1016 9.332 8.891 5.301
1017 7.994 8.741 6.322
1018 23.115 2.939 26.282
1019 22.26 3.207 25.839
1020 23.787 2.5 25.686
1021 -0.098 14.108 20.337
1022 0.108 14.95 20.837
1023 -0.01 14.168 19.343
1024 23.259 19.968 5.555
1025 23.507 20.186 6.498
1026 22.396 20.363 5.237
1027 17.433 17.001 0.152
1028 16.516 16.999 -0.247
1029 17.922 17.872 0.095
1030 6.059 25.87 25.747
1031 5.76 25.279 26.496
1032 5.471 26.659 25.564
1033 11.278 25.761 19.986
1034 12.246 25.511 19.953
1035 11.057 26.536 20.578
1036 5.797 25.848 14.753
1037 6.568 25.823 14.117
1038 4.925 26.136 14.357
1039 17.46 3.193 2.843
1040 17.913 2.38 3.208
1041 16.499 3.072 2.595
1042 11.235 0.131 5.606
1043 11.448 -0.846 5.611
1044 11.898 0.716 6.074
1045 14.184 20.426 11.416
1046 14.266 20.169 12.379
1047 14.776 19.922 10.787
1048 23.333 2.784 14.608
1049 22.698 3.5 14.895
1050 23.131 2.362 13.724
1051 14.25 14.117 22.923
1052 15.227 14.145 23.137
1053 13.749 14.964 23.102
1054 25.592 5.692 20.109
1055 25.918 6.617 20.303
1056 26.297 4.982 20.104
1057 25.787 17.066 5.997
1058 25.767 18.058 6.123
1059 26.253 16.748 5.171
1060 14.723 2.734 22.973
1061 13.88 2.2 23.024
1062 14.623 3.711 23.165
1063 23.33 17.29 26.161
1064 22.639 16.567 26.16
1065 23.193 18.015 25.486
1066 17.366 25.869 14.751
1067 16.427 25.95 14.416
1068 18.079 25.988 14.059
1069 23.19 17.306 17.62
1070 23.622 16.781 16.887
1071 22.35 17.785 17.365
1072 2.626 22.825 8.549
1073 2.507 23.816 8.489
1074 3.512 22.521 8.898
1075 0.072 14.67 22.822
1076 0.376 14.703 23.773
1077 -0.448 13.854 22.567
1078 25.786 11.209 -0.058
1079 25.624 11.732 0.779
1080 26.398 11.64 -0.721
1081 11.838 14.282 8.526
1082 11.071 13.684 8.756
1083 11.672 15.26 8.654
1084 3.119 8.853 3.049
1085 3.263 7.872 2.92
1086 2.263 9.212 2.676
1087 8.691 22.787 3.113
1088 9.139 23.673 3.226
1089 8.106 22.702 2.306
1090 2.794 6.053 8.834
1091 3.737 5.728 8.76
1092 2.114 5.51 8.342
1093 5.719 11.74 17.008
1094 6.064 10.805 16.925
1095 5.508 12.037 17.939
1096 11.734 2.79 25.66
1097 10.735 2.764 25.612
1098 12.112 3.091 26.536
1099 20.31 5.47 25.788
1100 20.84 6.31 25.902
1101 19.367 5.51 26.117
1102 23.314 8.689 5.523
1103 22.373 8.478 5.26
1104 23.475 8.769 6.507
1105 5.777 14.437 3.237
1106 6.545 14.693 2.65
1107 4.968 14.096 2.759
1108 11.551 20.513 14.512
1109 11.675 19.751 15.148
1110 11.356 20.253 13.566
1111 17.125 22.994 23.364
1112 18.114 23.127 23.302
1113 16.632 23.042 22.496
1114 11.601 8.424 14.139
1115 12.122 8.42 14.993
1116 10.858 9.091 14.095
1117 0.325 25.984 20.033
1118 -0.351 25.374 19.618
1119 0.026 26.45 20.866
1120 8.929 17.491 26.014
1121 8.801 16.576 26.396
1122 8.206 17.804 25.398
1123 5.916 5.978 23.295
1124 5.111 5.422 23.506
1125 6.264 5.891 22.362
1126 20.055 14.714 2.739
1127 19.84 13.82 2.344
1128 20.622 14.692 3.563
1129 25.903 2.775 8.984
1130 26.786 2.804 8.515
1131 25.118 3.066 8.437
1132 0.047 20.512 14.507
1133 0.246 19.747 15.119
1134 -0.293 20.259 13.601
1135 25.683 23.247 0.161
1136 26.603 23.602 -0.006
1137 25.521 22.312 -0.155
1138 16.952 17.236 5.861
1139 17.725 16.973 6.439
1140 17.195 17.663 4.99
1141 2.879 14.182 26.211
1142 2.057 14.388 25.679
1143 3.709 14.656 25.917
1144 8.491 20.121 6.081
1145 8.246 20.886 5.486
1146 9.198 19.51 5.724
1147 20.481 11.468 14.577
1148 19.68 11.842 15.045
1149 20.356 11.272 13.605
1150 5.62 0.297 0.135
1151 5.964 0.248 -0.802
1152 5.706 -0.545 0.667
1153 22.826 3.118 0.139
1154 23.757 3.366 -0.131
1155 22.579 2.16 -0.008
1156 23.142 -0.344 17.258
1157 22.546 -0.011 17.989
1158 23.474 0.355 16.625
1159 11.735 2.617 8.762
1160 10.936 2.453 8.183
1161 11.909 3.575 8.99
1162 8.729 25.596 11.595
1163 8.071 26.106 12.149
1164 9.137 26.106 10.838
1165 17.508 5.481 17.278
1166 17.788 6.354 17.676
1167 16.575 5.455 16.917
1168 0.028 11.868 11.629
1169 0.259 11.565 10.704
1170 -0.287 11.148 12.248
1171 17.024 8.74 3.099
1172 17.841 9.304 2.978
1173 17.007 7.892 2.568
1174 14.392 8.312 0.125
1175 15.257 8.745 -0.125
1176 13.578 8.879 0
1177 8.624 8.477 11.841
1178 8.035 9.251 11.608
1179 9.277 8.208 11.132
1180 26.144 23.103 11.242
1181 26.453 23.309 12.17
1182 25.211 22.75 11.17
1183 2.739 22.846 25.684
1184 2.533 23.822 25.752
1185 3.374 22.494 26.371
1186 -0.217 26.018 5.493
1187 -0.113 25.082 5.829
1188 0.33 26.707 5.969
1189 23.299 22.956 2.641
1190 23.546 23.299 3.547
1191 22.317 22.906 2.456
1192 26.14 20.42 23.209
1193 25.995 20.39 22.22
1194 25.672 19.707 23.732
1195 17.026 25.983 26.17
1196 16.866 25.65 25.24
1197 17.98 26.174 26.398
1198 0.233 5.801 17.023
1199 -0.746 5.965 16.906
1200 0.513 5.525 17.943
ITEM: TIMESTEP
1000
ITEM: NUMBER OF ATOMS
1200
ITEM: BOX BOUNDS pp pp pp
-1.4399999999999999e+00 2.7379999999999999e+01
-1.4199999999999999e+00 2.7399999999999999e+01
-1.5900000000000001e+00 2.7230000000000000e+01
ITEM: ATOMS id xu yu zu
1 14.7768 12.2639 14.0844
2 13.8943 12.5294 14.5157
3 15.0679 11.4192 14.5721
4 25.4975 6.33518 0.354834
5 25.9819 6.57399 -0.507117
6 26.2077 6.30849 1.08198
7 4.08112 -1.39038 24.6611
8 4.93659 -1.74611 25.1116
9 4.34239 -1.282 23.6967
10 25.4686 22.3634 5.29559
11 25.3955 22.8001 4.37642
12 26.4198 22.0491 5.33498
13 8.66914 17.1628 19.8132
14 9.56807 17.4486 19.4099
15 8.61623 17.6527 20.6924
16 11.5303 0.241103 8.51388
17 11.6978 1.2505 8.49871
18 11.42 0.0339161 9.50942
19 14.925 17.241 9.6114
20 14.6014 17.186 8.66067
21 14.6713 16.3357 10.0183
22 23.6359 -0.114484 3.23051
23 23.0333 -0.00326055 2.43588
24 24.5755 0.0893666 2.90042
25 11.4886 12.2877 0.487018
26 11.6291 11.4286 -0.0148402
27 12.2006 12.2476 1.23316
28 15.1953 16.1263 24.4968
29 15.0354 15.8629 25.4695
30 14.973 17.1272 24.4537
31 0.519981 11.6341 19.1141
32 0.106576 12.4179 19.6232
33 1.46606 11.5416 19.492
34 5.95939 22.1589 3.07606
35 6.00947 22.5441 2.1213
36 5.23092 22.6864 3.52636
37 19.7758 6.27338 18.4054
38 19.9187 7.25753 18.1753
39 20.4849 6.07754 19.0907
40 17.0954 21.2981 14.041
41 17.2187 22.0232 14.7614
42 17.5008 20.4722 14.4445