LAMMPS (7 Feb 2024 - Development - patch_7Feb2024-18-gc6a8f1fe58)
units real
atom_style full
bond_style harmonic
angle_style harmonic
dihedral_style opls
improper_style cvff
pair_style lj/cut 11.0
pair_modify mix geometric
special_bonds lj/coul 0 0 0.5
read_data polymer_builder.data
Reading data file ...
  orthogonal box = (-5.34 -5.74 -5.47) to (31.78 32.15 31.52)
  1 by 1 by 1 MPI processor grid
  reading atoms ...
  500 atoms
Finding 1-2 1-3 1-4 neighbors ...
  special bond factors lj:    0        0        0.5     
  special bond factors coul:  0        0        0.5     
     0 = max # of 1-2 neighbors
     0 = max # of 1-3 neighbors
     0 = max # of 1-4 neighbors
     1 = max # of special neighbors
  special bonds CPU = 0.000 seconds
  read_data CPU = 0.006 seconds
dump 1 all custom 1000 dump.custom.gz id xu yu zu
dump_modify 1 sort id
min_style fire
minimize 1.0e-6 1.0e-8 10000 100000
Generated 0 of 0 mixed pair_coeff terms from geometric mixing rule
Neighbor list info ...
  update: every = 1 steps, delay = 0 steps, check = yes
  max neighbors/atom: 2000, page size: 100000
  master list distance cutoff = 13
  ghost atom cutoff = 13
  binsize = 6.5, bins = 6 6 6
  1 neighbor lists, perpetual/occasional/extra = 1 0 0
  (1) pair lj/cut, perpetual
      attributes: half, newton on
      pair build: half/bin/newton
      stencil: half/bin/3d
      bin: standard
  Parameters for fire:
    dmax  delaystep dtgrow dtshrink alpha0 alphashrink tmax tmin   integrator   halfstepback   abcfire  
     0.1     20      1.1     0.5     0.25     0.99      10  0.02 eulerimplicit      yes          no     
Per MPI rank memory allocation (min/avg/max) = 6.093 | 6.093 | 6.093 Mbytes
   Step          Temp          E_pair         E_mol          TotEng         Press     
         0   0              79898.749      0              79898.749      438918.3     
       983   1.3978321     -915.98913      0             -913.90996     -87.827096    
Loop time of 0.565587 on 1 procs for 983 steps with 500 atoms

97.1% CPU use with 1 MPI tasks x no OpenMP threads

Minimization stats:
  Stopping criterion = energy tolerance
  Energy initial, next-to-last, final = 
      79898.7493007019  -915.989473159047   -915.98913393166
  Force two-norm initial, final = 52129.448 1.8491327
  Force max component initial, final = 8211.8735 0.25337197
  Final line search alpha, max atom move = 0 0
  Iterations, force evaluations = 983 985

MPI task timing breakdown:
Section |  min time  |  avg time  |  max time  |%varavg| %total
---------------------------------------------------------------
Pair    | 0.51376    | 0.51376    | 0.51376    |   0.0 | 90.84
Bond    | 0.00061331 | 0.00061331 | 0.00061331 |   0.0 |  0.11
Neigh   | 0.032227   | 0.032227   | 0.032227   |   0.0 |  5.70
Comm    | 0.007365   | 0.007365   | 0.007365   |   0.0 |  1.30
Output  | 0          | 0          | 0          |   0.0 |  0.00
Modify  | 0          | 0          | 0          |   0.0 |  0.00
Other   |            | 0.01162    |            |       |  2.05

Nlocal:            500 ave         500 max         500 min
Histogram: 1 0 0 0 0 0 0 0 0 0
Nghost:           1479 ave        1479 max        1479 min
Histogram: 1 0 0 0 0 0 0 0 0 0
Neighs:          28716 ave       28716 max       28716 min
Histogram: 1 0 0 0 0 0 0 0 0 0

Total # of neighbors = 28716
Ave neighs/atom = 57.432
Ave special neighs/atom = 0
Neighbor list builds = 35
Dangerous builds = 0
timestep 1
thermo_modify flush yes
thermo 1000
velocity all create 10 482748
fix 1a all temp/berendsen 10 10 100
fix 1b all nve
run 1000
Generated 0 of 0 mixed pair_coeff terms from geometric mixing rule
Per MPI rank memory allocation (min/avg/max) = 7.379 | 7.379 | 7.379 Mbytes
   Step          Temp          E_pair         E_mol          TotEng         Press     
       983   10            -915.98913      0             -901.11489     -76.584704    
      1000   9.6647176     -915.4544       0             -901.07887     -76.375983    
      1983   10.154104     -901.51268      0             -886.40922     -152.7108     
Loop time of 0.359859 on 1 procs for 1000 steps with 500 atoms

Performance: 240.094 ns/day, 0.100 hours/ns, 2778.864 timesteps/s, 1.389 Matom-step/s
96.6% CPU use with 1 MPI tasks x no OpenMP threads

MPI task timing breakdown:
Section |  min time  |  avg time  |  max time  |%varavg| %total
---------------------------------------------------------------
Pair    | 0.34294    | 0.34294    | 0.34294    |   0.0 | 95.30
Bond    | 0.00035658 | 0.00035658 | 0.00035658 |   0.0 |  0.10
Neigh   | 0.0016707  | 0.0016707  | 0.0016707  |   0.0 |  0.46
Comm    | 0.0060102  | 0.0060102  | 0.0060102  |   0.0 |  1.67
Output  | 0.00044682 | 0.00044682 | 0.00044682 |   0.0 |  0.12
Modify  | 0.0061938  | 0.0061938  | 0.0061938  |   0.0 |  1.72
Other   |            | 0.002242   |            |       |  0.62

Nlocal:            500 ave         500 max         500 min
Histogram: 1 0 0 0 0 0 0 0 0 0
Nghost:           1457 ave        1457 max        1457 min
Histogram: 1 0 0 0 0 0 0 0 0 0
Neighs:          28467 ave       28467 max       28467 min
Histogram: 1 0 0 0 0 0 0 0 0 0

Total # of neighbors = 28467
Ave neighs/atom = 56.934
Ave special neighs/atom = 0
Neighbor list builds = 2
Dangerous builds = 0
unfix 1b
unfix 1a

fix 2a all press/berendsen iso 1 1 10000
fix 2b all temp/berendsen 10 298.15 100
fix 2c all nve
run 10000
Generated 0 of 0 mixed pair_coeff terms from geometric mixing rule
Per MPI rank memory allocation (min/avg/max) = 7.379 | 7.379 | 7.379 Mbytes
   Step          Temp          E_pair         E_mol          TotEng         Press          Volume    
      1983   10.154104     -901.51268      0             -886.40922     -152.7108       52025.577    
      2000   10.320803     -903.37856      0             -888.02714     -34.277192      51302.563    
      3000   34.238896     -876.98394      0             -826.05618     -11.380891      48730.095    
      4000   62.90073      -848.37653      0             -754.81646     -14.881452      41684.646    
      5000   90.306307     -824.97428      0             -690.65049     -10.775757      35681.045    
      6000   119.52881     -776.96048      0             -599.17043     -2.1794301      34791.343    
      7000   144.30985     -677.37111      0             -462.72115      26.048015      38483.526    
      8000   173.35414     -566.72085      0             -308.8697       45.934768      44569.744    
      9000   201.70826     -419.9636       0             -119.93785      44.620388      60507.286    
     10000   235.64433     -253.23393      0              97.269145      50.811616      104434.73    
     11000   264.008       -129.23696      0              263.45494      64.758058      215241.52    
     11983   291.31828     -74.325568      0              358.9883       53.026458      369640.55    
Loop time of 3.12062 on 1 procs for 10000 steps with 500 atoms

Performance: 276.868 ns/day, 0.087 hours/ns, 3204.487 timesteps/s, 1.602 Matom-step/s
98.6% CPU use with 1 MPI tasks x no OpenMP threads

MPI task timing breakdown:
Section |  min time  |  avg time  |  max time  |%varavg| %total
---------------------------------------------------------------
Pair    | 2.8278     | 2.8278     | 2.8278     |   0.0 | 90.62
Bond    | 0.0033399  | 0.0033399  | 0.0033399  |   0.0 |  0.11
Neigh   | 0.10529    | 0.10529    | 0.10529    |   0.0 |  3.37
Comm    | 0.064743   | 0.064743   | 0.064743   |   0.0 |  2.07
Output  | 0.0040486  | 0.0040486  | 0.0040486  |   0.0 |  0.13
Modify  | 0.09287    | 0.09287    | 0.09287    |   0.0 |  2.98
Other   |            | 0.02257    |            |       |  0.72

Nlocal:            500 ave         500 max         500 min
Histogram: 1 0 0 0 0 0 0 0 0 0
Nghost:            647 ave         647 max         647 min
Histogram: 1 0 0 0 0 0 0 0 0 0
Neighs:           3426 ave        3426 max        3426 min
Histogram: 1 0 0 0 0 0 0 0 0 0

Total # of neighbors = 3426
Ave neighs/atom = 6.852
Ave special neighs/atom = 0
Neighbor list builds = 150
Dangerous builds = 0
unfix 2c
unfix 2b
unfix 2a

variable xl equal "xhi - xlo"
variable yl equal "yhi - ylo"
variable zl equal "zhi - zlo"
fix xyzl all ave/time 1 1000 1000 v_xl v_yl v_zl file xyzl.data

fix 4a all press/berendsen iso 1 1 1000
fix 4b all temp/berendsen 298.15 298.15 100
fix 4c all nve
run 1000000
Generated 0 of 0 mixed pair_coeff terms from geometric mixing rule
Per MPI rank memory allocation (min/avg/max) = 7.396 | 7.396 | 7.396 Mbytes
   Step          Temp          E_pair         E_mol          TotEng         Press          Volume    
     11983   291.31828     -74.322134      0              358.99173      52.971569      369640.55    
     12000   292.53804     -72.679367      0              362.44879      43.276112      400202.99    
     13000   298.37869     -15.289605      0              428.52608      9.1600946      2137010.4    
     14000   297.8643      -8.6716989      0              434.37887      5.3451249      3833483.6    
     15000   298.17637     -5.3456011      0              438.16915      3.678654       5369180      
     16000   298.42371     -5.8591336      0              438.02353      2.9429385      6766311      
     17000   298.15754     -3.3416423      0              440.1451       2.5184664      8040783.7    
     18000   297.92246     -2.995415       0              440.14167      2.1710924      9190953.2    
     19000   298.21074     -2.5796191      0              440.98626      1.9547455      10234136     
     20000   297.68811     -2.0284474      0              440.76005      1.8447555      11196754     
     21000   297.56648     -1.874375       0              440.73322      1.6938038      12058581     
     22000   298.17036     -1.6594331      0              441.84639      1.5723647      12833434     
     23000   298.24629     -1.4816058      0              442.13714      1.4884787      13533274     
     24000   297.94371     -1.5345077      0              441.63418      1.4322281      14167952     
     25000   298.26585     -2.0450453      0              441.60281      1.3601015      14741067     
     26000   298.385       -2.0920754      0              441.733        1.3216629      15272582     
     27000   297.98008     -1.675369       0              441.54741      1.2865542      15741484     
     28000   298.12874     -1.4458746      0              441.99804      1.2435683      16161256     
     29000   297.15299     -0.3978579      0              441.59469      1.2530027      16550893     
     30000   298.10417     -1.3501717      0              442.05719      1.1899284      16902581     
     31000   298.20453     -2.9647832      0              440.59186      1.1672351      17215094     
     32000   298.1635      -1.2261932      0              442.26942      1.1507936      17495888     
     33000   298.24751     -1.7453462      0              441.87522      1.132125       17754853     
     34000   298.15779     -1.2561669      0              442.23095      1.1209116      17992325     
     35000   298.14852     -1.0913736      0              442.38196      1.1154522      18201761     
     36000   298.16182     -2.2553036      0              441.23781      1.0956696      18391917     
     37000   298.20402     -1.2146157      0              442.34126      1.0916138      18571119     
     38000   298.22656     -2.1497194      0              441.43969      1.0861219      18726702     
     39000   298.1761      -1.4053491      0              442.109        1.0694316      18868618     
     40000   297.99661     -1.3179971      0              441.92938      1.0744273      18992558     
     41000   298.12826     -1.440776       0              442.00241      1.0528899      19106671     
     42000   298.22222     -1.3636635      0              442.21928      1.0560332      19217100     
     43000   298.18794     -1.1883382      0              442.34362      1.0450599      19316137     
     44000   298.32466     -1.334722       0              442.40061      1.0414236      19407984     
     45000   298.08394     -0.79000467     0              442.58727      1.0397773      19483564     
     46000   298.41962     -1.43452        0              442.44205      1.0320309      19563398     
     47000   298.06408     -1.3722033      0              441.97553      1.0245583      19628917     
     48000   298.29059     -1.7373968      0              441.94726      1.0226874      19686576     
     49000   298.13185     -0.83675815     0              442.61177      1.0222634      19731759     
     50000   298.11586     -1.4962006      0              441.92855      1.016757       19780101     
     51000   298.10814     -1.1174151      0              442.29585      1.0176024      19818131     
     52000   298.20249     -1.2874081      0              442.26619      1.0181645      19864226     
     53000   298.14174     -1.212697       0              442.25054      1.0112051      19906882     
     54000   298.32928     -1.462379       0              442.27982      1.0153461      19942703     
     55000   298.30302     -1.3275212      0              442.37561      1.0187985      19979712     
     56000   298.16418     -1.378069       0              442.11855      1.0118161      20012597     
     57000   297.54409     -0.37439772     0              442.19988      1.0306396      20037054     
     58000   298.37291     -0.9284958      0              442.8786       1.0209075      20065081     
     59000   298.20726     -1.8149169      0              441.74579      1.0064926      20078450     
     60000   298.21024     -1.644817       0              441.92032      1.0028294      20090649     
     61000   298.18235     -1.0061523      0              442.5175       1.0024104      20105918     
     62000   298.15058     -1.3881436      0              442.08825      1.0003328      20126292     
     63000   298.34242     -2.3068167      0              441.45492      1.0017783      20130935     
     64000   298.00815     -1.4623581      0              441.80218      1.0088817      20140873     
     65000   298.43637     -1.6674094      0              442.23407      1.0067195      20157082     
     66000   298.08338     -1.3815774      0              441.99486      0.99876468     20167096     
     67000   298.21613     -1.7316983      0              441.84219      0.99714395     20175429     
     68000   298.02982     -2.0321646      0              441.26461      0.9992856      20183679     
     69000   298.34693     -1.3183054      0              442.45014      0.99880224     20191258     
     70000   298.10295     -1.4461952      0              441.95936      0.99581536     20196061     
     71000   297.98733     -1.0886645      0              442.1449       1.0061146      20197456     
     72000   298.16931     -1.2913967      0              442.21286      0.99939541     20204794     
     73000   298.17263     -1.4354288      0              442.07376      0.99977399     20204059     
     74000   298.16124     -0.92483523     0              442.56742      0.99791091     20209541     
     75000   298.17821     -1.6315194      0              441.88597      1.0108922      20215293     
     76000   298.10959     -1.5479391      0              441.86748      1.0116134      20220204     
     77000   298.40636     -1.3871743      0              442.46967      0.99984228     20230270     
     78000   298.24713     -1.537874       0              442.08213      1.0012446      20227233     
     79000   298.03988     -1.3594214      0              441.95231      0.99980668     20231388     
     80000   298.313       -1.1053139      0              442.61266      0.9998108      20232701     
     81000   298.19375     -1.0515625      0              442.48905      0.99610338     20240577     
     82000   298.37328     -2.0837698      0              441.72387      0.99479323     20238800     
     83000   298.12419     -1.5969465      0              441.8402       0.99522692     20240264     
     84000   298.3074      -1.526425       0              442.18323      0.99636613     20237594     
     85000   298.16232     -1.157348       0              442.33651      0.99568073     20237211     
     86000   298.2198      -1.1697169      0              442.40963      0.99761912     20232752     
     87000   297.78283     -0.67665727     0              442.25274      1.0128706      20239017     
     88000   298.13615     -1.1377839      0              442.31714      0.99954944     20238830     
     89000   297.54555     -0.75750607     0              441.81895      1.0254895      20239744     
     90000   298.4568      -1.7071008      0              442.22477      0.99775667     20242362     
     91000   298.17778     -1.064208       0              442.45264      0.99815791     20240792     
     92000   298.02571     -1.074757       0              442.21591      0.99469152     20238111     
     93000   298.21161     -1.63147        0              441.9357       0.99647708     20232511     
     94000   298.10347     -1.6552786      0              441.75104      0.99208044     20242177     
     95000   298.16718     -1.6523249      0              441.84875      0.99503676     20234107     
     96000   297.81532     -1.3802952      0              441.59743      1.0065329      20234453     
     97000   298.30779     -2.2496763      0              441.46056      0.99488723     20233630     
     98000   298.19159     -1.4104452      0              442.12695      0.99719758     20235854     
     99000   298.06247     -1.3289713      0              442.01636      0.99429036     20236490     
    100000   298.47821     -1.8084269      0              442.15529      0.99839023     20239692     
    101000   298.1503      -1.512388       0              441.96358      0.9995522      20236683     
    102000   298.63236     -1.798333       0              442.39468      0.99703486     20246642     
    103000   298.17394     -1.2632436      0              442.2479       0.99870606     20247044     
    104000   298.13236     -0.95063715     0              442.49865      1.0022971      20243828     
    105000   298.20874     -0.8761993      0              442.6867       0.99652764     20241111     
    106000   298.24185     -1.7648538      0              441.8473       0.99400827     20244950     
    107000   298.21297     -1.0806784      0              442.48852      0.99580887     20243592     
    108000   298.06902     -1.1084626      0              442.24662      1.0034568      20241993     
    109000   298.27825     -1.3028371      0              442.36345      0.99681467     20245364     
    110000   298.13217     -1.7236896      0              441.72532      0.99310731     20246125     
    111000   297.72515     -0.28328349     0              442.56032      1.0172522      20246332     
    112000   298.22675     -1.3241854      0              442.26551      0.99648494     20244402     
    113000   298.27151     -1.8398317      0              441.81644      0.99331166     20242995     
    114000   298.1041      -1.7748469      0              441.63241      1.0011905      20240774     
    115000   298.22949     -2.0566029      0              441.53717      0.99395421     20241905     
    116000   298.25025     -1.5040129      0              442.12063      0.99580839     20233690     
    117000   298.0274      -1.2600768      0              442.03309      1.0056262      20231446     
    118000   298.46111     -2.4460918      0              441.4922       0.99697637     20239031     
    119000   298.08688     -0.98228545     0              442.39936      0.99906026     20241021     
    120000   298.17061     -1.3400276      0              442.16615      0.9969412      20241157     
    121000   298.20401     -1.2502265      0              442.30565      0.99589026     20245587     
    122000   298.36653     -1.3435037      0              442.4541       0.99434841     20258924     
    123000   298.12772     -1.2156183      0              442.22677      0.99690643     20265801     
    124000   298.32831     -2.102794       0              441.63795      0.99214713     20255716     
    125000   298.35698     -1.7750647      0              442.00833      0.99597989     20255705     
    126000   297.75666     -1.0332921      0              441.85717      1.0159612      20256682     
    127000   298.10269     -1.2355312      0              442.16963      1.0046778      20255782     
    128000   298.23064     -1.5289086      0              442.06657      0.9928445      20249965     
    129000   298.20296     -1.646286       0              441.90802      0.9992775      20240961     
    130000   298.14188     -1.5828906      0              441.88056      1.0017393      20241388     
    131000   298.2979      -2.2967295      0              441.39879      0.99188536     20238021     
    132000   298.45292     -2.3215666      0              441.60453      0.99885704     20235470     
    133000   298.12779     -1.5477473      0              441.89475      0.9959399      20237197     
    134000   297.9541      -1.3879348      0              441.79621      0.99497386     20243635     
    135000   297.68684     -0.31357669     0              442.47304      1.0181387      20240617     
    136000   298.03794     -1.1816237      0              442.12722      0.99532298     20241464     
    137000   298.11289     -1.2070282      0              442.21331      0.99488782     20237745     
    138000   298.08918     -1.7661776      0              441.61889      0.99304378     20227926     
    139000   298.23394     -1.8226126      0              441.77778      0.99334561     20224260     
    140000   298.05636     -1.1297256      0              442.20651      0.99532813     20228673     
    141000   298.24254     -1.5321382      0              442.08104      0.99597863     20232773     
    142000   298.13644     -1.2465716      0              442.20879      1.013137       20240190     
    143000   298.07618     -1.2574794      0              442.10825      0.99522018     20242894     
    144000   298.14685     -2.1257714      0              441.34507      0.99656182     20245702     
    145000   298.20729     -1.1728582      0              442.38789      0.99960033     20246732     
    146000   298.04241     -0.95055656     0              442.36495      0.99536171     20249230     
    147000   298.24263     -1.662273       0              441.95103      0.9938747      20248588     
    148000   298.19884     -1.6104316      0              441.93774      0.99659726     20246842     
    149000   298.35566     -1.217919       0              442.56351      0.99609129     20249550     
    150000   298.09166     -1.624352       0              441.7644       0.99751666     20249091     
    151000   298.19801     -0.87559297     0              442.67134      0.99639245     20245908     
    152000   298.231       -1.4302119      0              442.1658       0.9973801      20245936     
    153000   298.33681     -1.8084129      0              441.94498      0.99693152     20243750     
    154000   298.01107     -2.2058412      0              441.06304      0.99344517     20248167     
    155000   298.11283     -1.7678706      0              441.65237      0.9920891      20248112     
    156000   298.19074     -0.83253694     0              442.70359      0.99691766     20247194     
    157000   298.11964     -0.42430574     0              443.00606      0.9983729      20248032     
    158000   298.19407     -1.651347       0              441.88974      1.009271       20251837     
    159000   298.13513     -1.0669449      0              442.38647      0.99499802     20255090     
    160000   298.15089     -0.79109546     0              442.68576      0.99555212     20260600     
    161000   298.10383     -1.0034627      0              442.40339      0.99646627     20268514     
    162000   298.02476     -1.2024167      0              442.08683      1.0096796      20260735     
    163000   298.28639     -1.4102137      0              442.26819      0.9960689      20266361     
    164000   298.24437     -1.4314782      0              442.18442      0.99433357     20265698     
    165000   298.57176     -2.7728347      0              441.33003      0.99491868     20268655     
    166000   298.13576     -1.0645922      0              442.38975      0.99400182     20263999     
    167000   298.1254      -1.1049536      0              442.33398      1.0035332      20271505     
    168000   298.14042     -0.64170837     0              442.81957      0.99598725     20271707     
    169000   298.12438     -0.61036468     0              442.82706      0.99671728     20268410     
    170000   298.37487     -1.1807378      0              442.62926      0.99751596     20267582     
    171000   298.20511     -1.1041137      0              442.45338      0.99514095     20269833     
    172000   298.09661     -0.95998314     0              442.43614      0.9983263      20265213     
    173000   298.38009     -1.5447222      0              442.27305      0.99422397     20259819     
    174000   298.23575     -1.6293019      0              441.97377      0.99454754     20261693     
    175000   298.16558     -1.0217331      0              442.47697      0.99807128     20256909     
    176000   297.75432     -0.42942594     0              442.45757      1.0150381      20254693     
    177000   298.26753     -0.96764042     0              442.68271      0.99604138     20256814     
    178000   297.79401     -0.90614787     0              442.03987      1.0097768      20261071     
    179000   298.1177      -0.66949821     0              442.75799      0.99638728     20257610     
    180000   298.27705     -1.276192       0              442.38831      1.0083473      20258826     
    181000   298.06837     -0.61110992     0              442.74301      0.99713874     20254594     
    182000   298.20581     -0.77311512     0              442.78542      0.99652301     20258888     
    183000   298.22799     -1.3090445      0              442.28249      1.0030356      20256071     
    184000   298.18129     -1.6048969      0              441.91717      0.99587145     20253804     
    185000   297.56108     -0.15387604     0              442.44568      1.0360364      20251500     
    186000   298.07933     -0.88703352     0              442.48338      0.99629925     20262498     
    187000   298.14174     -1.0460502      0              442.41719      0.99552283     20261663     
    188000   298.2157      -0.64203469     0              442.93122      0.99764073     20257381     
    189000   298.41629     -1.3815627      0              442.49005      0.99540343     20256448     
    190000   298.17584     -1.8026652      0              441.7113       0.99694972     20253194     
    191000   298.12667     -1.1809898      0              442.25984      0.99517253     20248088     
    192000   298.28483     -1.5256411      0              442.15043      1.0004772      20245134     
    193000   298.16927     -1.0571832      0              442.44701      0.99580984     20246143     
    194000   298.09347     -0.61651525     0              442.77493      0.99734432     20250770     
    195000   298.10549     -0.58115088     0              442.82817      0.99738338     20247670     
    196000   298.25131     -1.0477216      0              442.5785       1.0115888      20249737     
    197000   298.10331     -1.2301038      0              442.17598      0.9938366      20256663     
    198000   297.29874      0.59823002     0              442.80757      1.0278796      20254223     
    199000   298.08175     -0.7081286      0              442.66588      0.99651655     20253019     
    200000   298.22304     -0.66358275     0              442.92059      0.99794494     20259407     
    201000   297.4074       1.3811119      0              443.75208      1.0333779      20265736     
    202000   298.18203     -0.27464366     0              443.24853      0.99850022     20268454     
    203000   298.43771     -1.165183       0              442.73829      0.99969715     20271353     
    204000   298.21053     -0.58868482     0              442.97688      0.9968061      20267942     
    205000   298.36135     -1.7310829      0              442.05881      0.99952117     20267629     
    206000   298.14788     -0.9213119      0              442.55107      0.99500813     20265675     
    207000   298.28113     -1.0857118      0              442.58487      0.99590705     20263826     
    208000   298.33825     -2.418467       0              441.33708      0.9909847      20261326     
    209000   298.22124     -1.2132692      0              442.36823      0.99594961     20251987     
    210000   298.11341     -1.2855603      0              442.13555      0.99852447     20252005     
    211000   298.17136     -0.66414473     0              442.84316      0.99673066     20255266     
    212000   298.25492     -1.1310134      0              442.50058      0.99520593     20258489     
    213000   297.76672     -0.5770902      0              442.32835      1.0179628      20256948     
    214000   298.48625     -1.7300701      0              442.2456       0.99678176     20264297     
    215000   298.13748     -0.37776099     0              443.07915      0.99813314     20258640     
    216000   298.11158     -1.3443426      0              442.07404      1.0069399      20268904     
    217000   298.093       -1.2421022      0              442.14865      1.0019015      20264153     
    218000   298.10188     -0.55562346     0              442.84834      1.003402       20270237     
    219000   297.94453     -0.7639129      0              442.406        1.0036539      20270190     
    220000   298.33674     -1.1671671      0              442.58613      1.0084582      20269777     
    221000   298.24899     -1.1249391      0              442.49783      0.99643454     20266250     
    222000   298.35182     -1.6389966      0              442.13673      0.99701564     20264597     
    223000   298.24276     -1.2924163      0              442.32108      0.99404827     20271316     
    224000   298.0933      -1.0267241      0              442.36448      0.99361609     20270880     
    225000   298.39192     -1.6058798      0              442.22948      0.99532451     20272028     
    226000   298.19923     -0.89672078     0              442.65203      0.99846665     20268820     
    227000   298.20642     -1.0178126      0              442.54164      0.99456272     20270842     
    228000   298.1068      -0.84681322     0              442.56446      0.99654714     20270180     
    229000   298.26204     -0.98645271     0              442.65572      1.0020691      20267380     
    230000   298.15986     -0.93015298     0              442.56004      0.99846449     20271853     
    231000   298.15836     -0.5433765      0              442.94459      0.99687116     20268567     
    232000   298.51973     -1.50409        0              442.52138      0.99875526     20272078     
    233000   298.16917     -0.91272439     0              442.59131      0.99624877     20263505     
    234000   298.2619      -1.0638852      0              442.57809      0.99496038     20260610     
    235000   298.20931     -1.3358923      0              442.22786      0.99320633     20263264     
    236000   298.34342     -1.2885012      0              442.47473      0.9953402      20260469     
    237000   298.26738     -1.192228       0              442.4579       0.99657522     20256737     
    238000   298.11975     -0.20297083     0              443.22757      1.0099096      20260626     
    239000   298.02377     -0.7282292      0              442.55954      1.0011293      20257732     
    240000   298.21816     -0.73324853     0              442.84366      0.99706316     20258767     
    241000   298.21363     -1.5765213      0              441.99366      0.99461664     20264010     
    242000   298.12477     -1.3794221      0              442.05858      0.99259266     20261831     
    243000   298.24339     -1.239209       0              442.37523      0.99564446     20263657     
    244000   297.72307      0.045028339    0              442.88554      1.0173093      20265819     
    245000   298.03233     -0.48274318     0              442.81776      0.99696614     20266416     
    246000   298.39188     -0.74511594     0              443.09019      1.0083452      20266575     
    247000   298.30764     -1.213565       0              442.49645      0.99468142     20266588     
    248000   298.06527     -0.70647892     0              442.64303      0.99546523     20268022     
    249000   298.15718     -1.0071519      0              442.47906      0.9979926      20267555     
    250000   298.19199     -0.90249658     0              442.6355       0.99578442     20270711     
    251000   298.17856     -0.96851483     0              442.54949      0.99632951     20273784     
    252000   298.08995     -0.49024758     0              442.89596      1.0038531      20269115     
    253000   298.0493      -0.68882892     0              442.63691      1.0086336      20268162     
    254000   298.23357     -0.89124811     0              442.70858      1.0100394      20272098     
    255000   298.30536     -1.2496486      0              442.45697      0.9970195      20274890     
    256000   298.2452      -1.7346374      0              441.8825       0.99514874     20271136     
    257000   298.06019     -0.82884607     0              442.51309      0.99463566     20278629     
    258000   298.07172     -1.2566443      0              442.10244      0.99247446     20274858     
    259000   298.11498     -1.2854518      0              442.13799      0.99515007     20266750     
    260000   298.54433     -2.1566488      0              441.90542      0.99476431     20262070     
    261000   298.05269     -0.63354792     0              442.69724      0.99630618     20266090     
    262000   298.19201     -0.69802233     0              442.83999      1.0077595      20266988     
    263000   297.86664     -1.5365665      0              441.51748      1.0167288      20266986     
    264000   297.97549     -0.80421341     0              442.41175      1.0127869      20266698     
    265000   298.26317     -0.66984106     0              442.97403      1.0000386      20270114     
    266000   298.2699      -1.7946021      0              441.85927      0.99158025     20273937     
    267000   298.19005     -0.77933855     0              442.75576      0.99567508     20269281     
    268000   298.31959     -1.3334694      0              442.39432      0.9965927      20267973     
    269000   298.32843     -1.2318011      0              442.50913      0.99764286     20265159     
    270000   298.14142     -1.0143927      0              442.44838      0.99508889     20267007     
    271000   298.08316     -1.45679        0              441.91932      0.99266113     20261523     
    272000   298.24694     -1.6277845      0              441.99193      0.99425927     20256775     
    273000   298.38794     -2.1249156      0              441.70453      0.99285333     20252604     
    274000   298.01929     -1.3760737      0              441.90504      1.0081681      20250145     
    275000   298.16958     -1.2174701      0              442.28718      0.99390872     20250849     
    276000   298.14235     -1.0499219      0              442.41422      0.99875222     20246092     
    277000   298.13931     -0.95659224     0              442.50304      0.99661212     20246441     
    278000   298.18333     -1.146018       0              442.37909      0.99776589     20242405     
    279000   298.37587     -1.5891517      0              442.22234      0.99837131     20245321     
    280000   298.07345     -1.3975638      0              441.9641       0.99315871     20248713     
    281000   298.03844     -0.94139881     0              442.3682       0.99601701     20247768     
    282000   298.29074     -1.7641093      0              441.92076      0.99658933     20243239     
    283000   298.19626     -0.89950748     0              442.64483      0.99817627     20240525     
    284000   298.32712     -0.67616882     0              443.06281      1.0026711      20241441     
    285000   298.16528     -1.2009276      0              442.29733      0.99573379     20243281     
    286000   298.22164     -0.89093369     0              442.69116      0.99641045     20246379     
    287000   298.19848     -0.95754736     0              442.59009      0.99641123     20247968     
    288000   298.26982     -1.1682622      0              442.48549      0.9974002      20244418     
    289000   298.06118     -1.3213694      0              442.02204      0.9939895      20244892     
    290000   298.18004     -1.3314272      0              442.18879      0.99530265     20243104     
    291000   298.10268     -1.7331323      0              441.67202      0.99257079     20243556     
    292000   298.08243     -2.0262014      0              441.34882      0.99350043     20243918     
    293000   298.12749     -1.8374255      0              441.60463      1.0117533      20246599     
    294000   298.34433     -1.9254838      0              441.8391       0.99612262     20246184     
    295000   298.1919      -1.2384411      0              442.2994       0.99515202     20240503     
    296000   298.19076     -1.9238436      0              441.61231      1.0010074      20240324     
    297000   298.1028      -0.75923019     0              442.6461       0.99715071     20243426     
    298000   298.12209     -1.1541351      0              442.27987      1.002112       20245282     
    299000   298.13192     -0.89580404     0              442.55283      0.99698724     20244637     
    300000   298.29643     -2.2232191      0              441.47011      1.0014763      20243003     
    301000   297.79839     -0.79047439     0              442.16207      1.0070851      20239371     
    302000   298.19862     -1.5377021      0              442.01015      1.0038695      20238514     
    303000   297.97527     -1.0904669      0              442.12517      1.0104799      20245806     
    304000   298.20542     -0.60759995     0              442.95037      0.99712053     20256600     
    305000   298.00986     -0.45926635     0              442.80782      0.99755505     20253332     
    306000   298.26102     -0.87449183     0              442.76617      1.003967       20258970     
    307000   298.14508     -1.0888581      0              442.37936      0.99451047     20254384     
    308000   298.14246     -1.1082329      0              442.35608      0.99711416     20250819     
    309000   298.11168     -1.0774125      0              442.34112      0.99801165     20249397     
    310000   298.3326      -1.2968258      0              442.45031      0.9977595      20252424     
    311000   297.91736     -0.87194356     0              442.25755      1.0047893      20253999     
    312000   298.33421     -1.2207765      0              442.52875      0.9951143      20249529     
    313000   298.32949     -1.4307024      0              442.31181      0.99581025     20264694     
    314000   298.01748     -1.1254609      0              442.15296      1.0023964      20260665     
    315000   298.15877     -1.2728523      0              442.21573      1.0014529      20261603     
    316000   298.24036     -0.97615722     0              442.63377      1.0010268      20263005     
    317000   298.12416     -1.282194       0              442.1549       0.99412116     20260577     
    318000   298.23478     -0.94083696     0              442.66079      0.99561357     20258401     
    319000   298.2621      -1.470712       0              442.17156      0.99933933     20260139     
    320000   298.15594     -0.73427474     0              442.75009      0.99685582     20262335     
    321000   298.11731     -0.83222213     0              442.59469      1.0007006      20256802     
    322000   298.24407     -0.99960188     0              442.61585      0.99507591     20262167     
    323000   298.16201     -1.3986301      0              442.09477      0.99216743     20261355     
    324000   298.0848      -1.305234       0              442.07331      0.99449615     20256461     
    325000   298.22218     -0.94764295     0              442.63524      1.0043955      20254213     
    326000   298.12516     -0.88187734     0              442.55671      1.0003597      20254058     
    327000   298.08654     -0.89044426     0              442.4907       1.0026029      20257432     
    328000   298.15972     -0.48268992     0              443.0073       0.99757059     20259475     
    329000   298.05618     -0.59081883     0              442.74516      0.99694573     20257731     
    330000   298.26479     -0.86121386     0              442.78506      0.99636476     20253461     
    331000   298.24391     -1.0071297      0              442.60809      0.99652882     20254698     
    332000   298.23793     -1.4289021      0              442.17742      0.99526392     20256974     
    333000   297.22178      0.29932584     0              442.3942       1.0323083      20262522     
    334000   298.04251     -1.0010758      0              442.31457      1.0011764      20261442     
    335000   298.14922     -0.76555123     0              442.70881      0.99661388     20260744     
    336000   298.26775     -1.1416276      0              442.50905      0.99681171     20263764     
    337000   298.10063     -0.32204982     0              443.08005      0.99788256     20268939     
    338000   298.18215     -0.67165116     0              442.8517       0.99606099     20268633     
    339000   298.11079     -0.75459521     0              442.66262      0.99684324     20265956     
    340000   298.20278     -0.90090296     0              442.65313      0.996145       20265637     
    341000   298.2961      -0.77443038     0              442.91841      1.0144752      20271111     
    342000   298.29762     -1.0521377      0              442.64296      1.0003346      20271272     
    343000   298.22672     -1.7032044      0              441.88644      0.99249749     20266354     
    344000   298.17726     -1.4571278      0              442.05895      0.99947738     20261843     
    345000   298.0892      -1.1707979      0              442.2143       0.99466802     20265208     
    346000   298.19097     -1.4249832      0              442.11148      1.0061717      20264820     
    347000   298.24119     -1.5304561      0              442.08072      0.99621254     20260362     
    348000   298.18161     -1.4049046      0              442.11764      0.99523988     20259807     
    349000   298.24604     -1.1828024      0              442.43558      0.99682954     20251053     
    350000   298.25395     -1.0900758      0              442.54007      0.99474908     20253343     
    351000   298.08086     -1.0524329      0              442.32026      1.0011108      20259398     
    352000   298.2326      -1.6224526      0              441.97593      1.0003168      20260306     
    353000   298.29581     -1.269239       0              442.42317      0.99653099     20259639     
    354000   298.27425     -1.2699005      0              442.39044      0.99996653     20269779     
    355000   298.19002     -1.3350185      0              442.20004      0.9959706      20268470     
    356000   298.16452     -0.66046223     0              442.83667      0.99610609     20267230     
    357000   297.99842     -0.55989912     0              442.69017      1.0027589      20263619     
    358000   298.28082     -1.2243756      0              442.44575      0.99541807     20260293     
    359000   298.17628     -1.0729004      0              442.44172      1.0008575      20260594     
    360000   298.09401     -0.36532232     0              443.02693      0.99793489     20261853     
    361000   298.26053     -0.98921315     0              442.65073      0.99894005     20260238     
    362000   298.17629     -1.2244229      0              442.29021      0.99590799     20255834     
    363000   298.02663     -0.9432946      0              442.34874      1.0010271      20256413     
    364000   298.24076     -1.040035       0              442.57049      0.99539599     20250714     
    365000   298.10641     -1.1596051      0              442.25109      0.99777918     20249838     
    366000   298.20323     -1.3516056      0              442.2031       0.99935232     20245056     
    367000   298.15498     -1.1827626      0              442.30017      1.0007865      20247070     
    368000   298.26435     -1.8030725      0              441.84254      0.99803211     20246745     
    369000   298.24346     -1.4378546      0              442.1767       1.0027004      20246616     
    370000   298.19909     -1.9902224      0              441.55832      0.99397189     20247768     
    371000   298.13315     -1.4585956      0              441.99187      0.99293891     20239917     
    372000   297.9888      -1.0834417      0              442.15232      0.99500784     20237976     
    373000   298.29463     -1.3258135      0              442.36484      0.99583523     20232931     
    374000   298.24341     -2.2478211      0              441.36665      0.99279237     20224939     
    375000   298.16046     -1.1911132      0              442.29997      0.99884932     20225578     
    376000   298.1987      -1.0624764      0              442.48549      1.0109016      20224372     
    377000   298.36674     -1.215666       0              442.58224      0.99649421     20226687     
    378000   298.0015      -1.8436095      0              441.41104      1.0193778      20224804     
    379000   298.21049     -1.6732499      0              441.89225      0.99930829     20225109     
    380000   298.23668     -1.7978371      0              441.80662      0.99987794     20225580     
    381000   298.21605     -2.1804034      0              441.39337      0.99724882     20222245     
    382000   298.01561     -1.6028778      0              441.67275      1.0155963      20221811     
    383000   297.83401     -0.71395122     0              442.29157      1.0121         20227646     
    384000   298.2769      -1.2623252      0              442.40196      0.99648128     20230733     
    385000   298.18894     -1.5560119      0              441.97744      0.99650796     20239408     
    386000   298.21479     -1.9533064      0              441.6186       0.9961445      20240343     
    387000   298.25659     -1.1474257      0              442.48665      0.99662866     20235161     
    388000   298.04679     -1.2518555      0              442.07015      0.99754728     20241284     
    389000   298.15205     -1.241115       0              442.23747      0.99709956     20238627     
    390000   298.159       -1.1107756      0              442.37814      0.99622529     20239522     
    391000   298.05889     -1.902898       0              441.43711      1.0068272      20236422     
    392000   298.38274     -0.66759272     0              443.15412      1.0181318      20236757     
    393000   298.04888     -0.71222695     0              442.6129       0.99692103     20241724     
    394000   298.30017     -1.5321814      0              442.16671      0.99585923     20240396     
    395000   298.37677     -1.5377105      0              442.27512      1.0006744      20239934     
    396000   298.22389     -1.2535334      0              442.33191      0.99593544     20246763     
    397000   298.40382     -1.6334346      0              442.21963      1.0008531      20251644     
    398000   298.13641     -1.0977714      0              442.35755      1.0175675      20250960     
    399000   298.1529      -1.3230526      0              442.15679      0.99359639     20249171     
    400000   298.28735     -2.1508115      0              441.52902      0.99232911     20247710     
    401000   297.92453     -1.9842417      0              441.15592      0.99714001     20244125     
    402000   298.1254      -1.1646465      0              442.27429      0.99398624     20246591     
    403000   298.1338      -1.1278861      0              442.32355      0.99656657     20239679     
    404000   298.14282     -0.44695336     0              443.0179       0.99837313     20246535     
    405000   298.42138     -1.5301465      0              442.34904      0.99924697     20258428     
    406000   298.0293      -1.333232       0              441.96277      0.99825902     20251892     
    407000   298.16894     -1.5681487      0              441.93555      1.0033642      20256871     
    408000   298.28512     -1.0713996      0              442.60511      1.0085739      20254858     
    409000   298.11573     -0.94613317     0              442.47842      0.99637899     20257447     
    410000   298.2959      -1.9471536      0              441.74539      0.99376289     20261248     
    411000   298.21887     -0.90515284     0              442.67282      0.99552388     20261212     
    412000   298.09861     -0.93354988     0              442.46554      0.99495754     20258976     
    413000   298.05521     -0.82183583     0              442.5127       0.99886167     20256435     
    414000   297.79348     -1.0744003      0              441.87084      1.0276734      20253659     
    415000   298.17509     -1.2096058      0              442.30325      0.99582431     20259792     
    416000   298.19797     -1.3358537      0              442.21103      1.0050978      20265100     
    417000   298.14778     -1.0241839      0              442.44804      0.99540956     20261017     
    418000   298.24861     -1.5124974      0              442.10971      0.99567513     20253934     
    419000   298.07137     -1.0993208      0              442.25925      0.99429889     20247036     
    420000   298.5337      -2.471713       0              441.57455      0.99320638     20244359     
    421000   298.11459     -1.7024983      0              441.72035      0.99590462     20246498     
    422000   298.30785     -1.2685342      0              442.44178      1.0036026      20246419     
    423000   298.18039     -1.0976891      0              442.42304      0.99560093     20248072     
    424000   298.17324     -1.3670096      0              442.14309      1.0008415      20244865     
    425000   298.10802     -1.3189319      0              442.09415      0.99959912     20247265     
    426000   298.02794     -0.86505136     0              442.42892      1.0062231      20244110     
    427000   298.03958     -1.1623138      0              442.14898      0.9997269      20246675     
    428000   298.20337     -1.5550766      0              441.99983      1.0005989      20243190     
    429000   298.06391     -1.1227096      0              442.22477      0.99459128     20248205     
    430000   298.26211     -1.082208       0              442.56008      1.0078483      20249870     
    431000   298.18583     -1.0290731      0              442.49975      0.99694361     20247492     
    432000   297.95219     -1.0698296      0              442.11148      1.0050378      20247787     
    433000   298.05733     -1.0707864      0              442.26691      1.002          20257116     
    434000   298.20376     -1.345971       0              442.20952      0.996379       20253828     
    435000   298.13737     -2.0297468      0              441.427        1.0103968      20253613     
    436000   298.10395     -2.0625647      0              441.34447      0.99237023     20258062     
    437000   298.11301     -1.0820834      0              442.33843      0.99548401     20255824     
    438000   298.19639     -0.87991351     0              442.66462      0.99613428     20258642     
    439000   298.14023     -1.5368993      0              441.92409      1.0071063      20256370     
    440000   298.20122     -1.6578073      0              441.89391      1.001741       20253873     
    441000   298.17515     -1.9682115      0              441.54473      1.0066599      20253842     
    442000   298.1416      -1.3125518      0              442.15048      1.000264       20252887     
    443000   298.082       -0.86878423     0              442.5056       0.99554523     20254412     
    444000   298.47105     -1.7331691      0              442.2199       1.0057202      20251422     
    445000   298.06217     -1.117106       0              442.22779      0.99480891     20256123     
    446000   298.08441     -0.97061183     0              442.40735      0.99472844     20258876     
    447000   298.10198     -1.3142401      0              442.08987      0.99704767     20252573     
    448000   297.85653     -0.67418829     0              442.36482      1.019299       20247633     
    449000   298.29235     -1.9048953      0              441.78238      0.99874722     20250057     
    450000   298.26613     -1.9684918      0              441.67977      1.0012291      20257187     
    451000   298.29705     -1.388005       0              442.30626      0.99526821     20258420     
    452000   298.14949     -1.2782756      0              442.19649      0.99603105     20252867     
    453000   298.13453     -1.3803557      0              442.07217      0.99739859     20248417     
    454000   298.13377     -0.82723703     0              442.62415      0.9961169      20246440     
    455000   298.09568     -0.87524127     0              442.51949      1.0055697      20247121     
    456000   298.07441     -1.6079731      0              441.75512      1.0156463      20248207     
    457000   298.34709     -1.8911709      0              441.87752      0.99540448     20248722     
    458000   298.11626     -1.5587061      0              441.86664      0.99502172     20244984     
    459000   298.30155     -1.3237246      0              442.37723      0.99785072     20247298     
    460000   298.51636     -1.9273854      0              442.09308      0.99616865     20248455     
    461000   298.20425     -0.89840609     0              442.65782      0.99821622     20250139     
    462000   298.10071     -0.80821282     0              442.594        0.99618735     20243675     
    463000   298.03457     -1.6285467      0              441.67529      0.99872959     20244391     
    464000   298.28836     -1.3914612      0              442.28987      0.99515246     20235540     
    465000   298.20054     -1.6468833      0              441.90382      0.99599071     20232042     
    466000   298.0585      -0.91110158     0              442.42833      1.0000422      20229259     
    467000   298.20564     -1.6868034      0              441.87149      0.99623619     20229913     
    468000   298.06031     -0.49153772     0              442.85059      0.99886359     20230365     
    469000   298.27701     -0.98220449     0              442.68224      1.0006212      20237523     
    470000   298.16457     -1.1722849      0              442.32492      0.99525037     20239383     
    471000   297.82204     -0.39141454     0              442.5963       1.0099428      20241061     
    472000   298.25228     -0.76757212     0              442.86009      0.99763205     20240610     
    473000   298.08892     -0.74916311     0              442.63551      0.99778563     20244739     
    474000   298.24763     -1.3150929      0              442.30565      0.99706336     20247148     
    475000   298.15483     -1.2423444      0              442.24037      0.9942197      20253284     
    476000   298.36614     -1.7985302      0              441.99849      0.99159039     20249478     
    477000   298.08058     -1.679676       0              441.69259      0.99296746     20247575     
    478000   298.11853     -0.37486877     0              443.05385      0.99892875     20242300     
    479000   298.25287     -1.0948783      0              442.53366      0.99981621     20253613     
    480000   298.17773     -1.3910324      0              442.12575      0.99438152     20252668     
    481000   298.01189     -0.59394352     0              442.67616      1.0078133      20250099     
    482000   298.0903      -1.6911252      0              441.69561      0.99807151     20252373     
    483000   298.13075     -0.67928747     0              442.76761      0.99704616     20250834     
    484000   298.28729     -1.2021933      0              442.47754      0.99890455     20250544     
    485000   298.17588     -0.77793215     0              442.73609      0.99918833     20250398     
    486000   298.13256     -1.0463856      0              442.40321      1.0060096      20250694     
    487000   298.13524     -0.77930645     0              442.67427      0.99616177     20252125     
    488000   298.04242     -0.99467476     0              442.32084      1.0026693      20252274     
    489000   298.08209     -1.1399635      0              442.23455      0.9955758      20250532     
    490000   298.04316     -1.275717       0              442.0409       1.0058094      20245317     
    491000   298.13766     -0.63650149     0              442.82068      0.99697969     20254682     
    492000   298.16745     -0.84329363     0              442.65819      0.99579709     20255873     
    493000   298.29761     -2.0383263      0              441.65676      0.99245915     20252009     
    494000   298.20229     -1.2888828      0              442.26442      0.99698375     20249534     
    495000   298.13353     -0.49492799     0              442.95611      0.99797315     20248285     
    496000   298.27905     -0.89931526     0              442.76816      0.997425       20248888     
    497000   298.29346     -1.7616495      0              441.92727      0.9932901      20250809     
    498000   298.14643     -0.90289678     0              442.56732      0.99540835     20258098     
    499000   298.1946      -0.56986698     0              442.972        0.99770424     20252697     
    500000   298.31135     -1.2514647      0              442.46407      0.99984856     20262977     
    501000   298.25801     -0.78719002     0              442.84899      0.99852604     20265136     
    502000   298.18963     -0.77672688     0              442.75775      1.0012062      20265178     
    503000   298.17479     -1.0630465      0              442.44936      1.0008755      20262251     
    504000   298.16949     -0.45521801     0              443.04929      0.99842442     20262728     
    505000   298.23695     -0.62418934     0              442.98067      0.99701616     20261927     
    506000   298.08915     -0.59590254     0              442.78911      0.99632452     20266352     
    507000   298.03511     -0.44002764     0              442.86462      0.99713829     20265233     
    508000   298.19151     -1.0267784      0              442.5105       0.99765021     20268622     
    509000   298.19601     -1.1961283      0              442.34784      0.99958129     20272162     
    510000   298.06625     -1.3451282      0              442.00583      0.99683317     20264717     
    511000   298.07072     -0.98521478     0              442.3724       0.99494815     20264755     
    512000   298.17332     -2.1697004      0              441.34051      1.0024522      20263055     
    513000   298.16042     -0.89012839     0              442.6009       0.99563507     20258602     
    514000   298.02809     -1.6180255      0              441.67617      1.0031296      20255607     
    515000   298.19988     -1.0727501      0              442.47697      0.9953747      20256088     
    516000   298.26462     -1.9146702      0              441.73135      0.99278266     20257230     
    517000   298.19721     -1.4184508      0              442.1273       0.99391359     20260496     
    518000   298.07863     -1.2036301      0              442.16575      0.99624025     20255521     
    519000   298.13691     -1.2411058      0              442.21496      1.0010221      20253429     
    520000   298.21322     -1.5099494      0              442.05961      0.99690231     20254336     
    521000   298.22221     -1.0195713      0              442.56336      0.99705629     20249489     
    522000   298.44924     -2.0298443      0              441.89078      0.99533167     20248375     
    523000   298.17448     -1.2573838      0              442.25457      0.9941361      20248512     
    524000   298.20996     -1.2395204      0              442.32519      0.99634552     20246037     
    525000   298.06653     -1.0217774      0              442.3296       0.99570618     20251249     
    526000   298.17148     -0.6184178      0              442.88906      0.99736718     20254110     
    527000   298.09389     -0.88763852     0              442.50443      0.99657928     20256276     
    528000   298.41977     -1.219065       0              442.65773      0.9973085      20262328     
    529000   298.19095     -2.0619074      0              441.47453      0.99844975     20260959     
    530000   298.28117     -1.7013467      0              441.96929      0.99951935     20253251     
    531000   298.22487     -2.1680206      0              441.41888      0.99852511     20257530     
    532000   298.47068     -1.9087652      0              442.04374      0.99504094     20257218     
    533000   298.1455      -1.6081653      0              441.86067      0.9941307      20262540     
    534000   298.01817     -1.228864       0              442.05059      0.99317007     20260536     
    535000   298.32519     -1.4015041      0              442.33461      0.99411718     20258881     
    536000   298.2358      -1.4173098      0              442.18584      0.99850934     20266487     
    537000   298.1683      -0.75410713     0              442.74865      0.99667345     20262365     
    538000   298.07204     -1.3177932      0              442.04178      0.99608076     20261774     
    539000   298.11348     -1.3014669      0              442.11975      0.99787416     20256293     
    540000   298.25873     -1.4287389      0              442.20853      1.0003494      20257381     
    541000   298.15303     -0.93118902     0              442.54885      0.99994842     20258101     
    542000   298.07249     -1.0116925      0              442.34855      0.99685466     20255307     
    543000   298.2182      -1.3364696      0              442.24051      1.001412       20252626     
    544000   298.21472     -1.6509146      0              441.92089      0.99803594     20252308     
    545000   298.16595     -1.4701762      0              442.02908      1.0045222      20248094     
    546000   298.11897     -1.0511574      0              442.37822      1.0013926      20243298     
    547000   298.19417     -0.90016133     0              442.64106      0.99683013     20243923     
    548000   298.29871     -1.498974       0              442.19776      0.9976046      20254184     
    549000   298.27153     -1.2789253      0              442.37738      0.99625172     20250470     
    550000   298.03895     -0.59288649     0              442.71746      1.0062934      20254819     
    551000   298.2866      -0.69347093     0              442.98523      0.99874551     20251816     
    552000   298.22396     -0.78465236     0              442.80089      0.99689966     20249208     
    553000   298.11019     -1.0549146      0              442.3614       0.99528636     20255804     
    554000   297.8215      -0.9973541      0              441.98955      1.009391       20256232     
    555000   298.21538     -0.70653382     0              442.86624      0.99690796     20257252     
    556000   297.9918      -1.088824       0              442.15139      1.0089484      20253060     
    557000   298.44903     -1.334758       0              442.58556      0.99710161     20256672     
    558000   298.42289     -2.2433048      0              441.63813      0.99344546     20256269     
    559000   298.0626      -0.78682853     0              442.5587       0.99538051     20259181     
    560000   298.15227     -1.4151357      0              442.06377      0.99985526     20255784     
    561000   298.08766     -0.51691917     0              442.86588      0.99744161     20253999     
    562000   298.23427     -1.350487       0              442.25039      0.99597298     20252602     
    563000   297.90188     -0.92968543     0              442.17678      1.0083321      20251780     
    564000   297.75574     -0.69399089     0              442.1951       1.0198555      20250551     
    565000   298.1311      -1.4149259      0              442.0325       1.000688       20249840     
    566000   298.07545     -0.74905761     0              442.61559      0.99590951     20253391     
    567000   298.1403      -1.1796281      0              442.28148      0.99408113     20253591     
    568000   298.11714     -0.65157725     0              442.77507      0.99696637     20250977     
    569000   298.18755     -0.99754314     0              442.53383      0.9957678      20259585     
    570000   298.11097     -0.76056217     0              442.65692      0.99591664     20263837     
    571000   298.13294     -0.93892064     0              442.51123      1.0034835      20258960     
    572000   298.06338     -1.0108438      0              442.33585      0.99484161     20259349     
    573000   298.10905     -0.9351568      0              442.47946      0.99529454     20252161     
    574000   298.31882     -1.3505864      0              442.37605      0.9945528      20253953     
    575000   298.18735     -1.3098725      0              442.22122      0.9985508      20254582     
    576000   298.04884     -1.6619062      0              441.66315      1.0033295      20262578     
    577000   298.32081     -2.0903772      0              441.63921      0.99385061     20253860     
    578000   298.2858      -2.3596477      0              441.31787      0.99202971     20254624     
    579000   298.13051     -1.1849489      0              442.26159      0.99637782     20245513     
    580000   298.15957     -0.84493634     0              442.64482      0.99823034     20240879     
    581000   298.20493     -1.631058       0              441.92617      0.99580072     20239547     
    582000   298.26073     -0.59864172     0              443.04159      1.002214       20243702     
    583000   298.14278     -0.54901526     0              442.91577      1.0005172      20248320     
    584000   298.22938     -1.0611539      0              442.53244      0.99811764     20249663     
    585000   298.2354      -0.82358519     0              442.77897      0.99882584     20249245     
    586000   298.05347     -0.54890945     0              442.78303      0.99747218     20245280     
    587000   298.44285     -1.1436733      0              442.76744      1.0050033      20245075     
    588000   298.44074     -1.0950613      0              442.81293      1.0034116      20252671     
    589000   298.17588     -1.2985914      0              442.21543      0.99512966     20247997     
    590000   298.18055     -0.4490488      0              443.07193      0.99830217     20250414     
    591000   298.01074     -0.81498494     0              442.4534       1.0055143      20247250     
    592000   298.32883     -1.7425412      0              441.99898      0.994449       20247382     
    593000   298.09065     -0.68990441     0              442.69735      0.99703154     20246158     
    594000   298.20252     -0.92994027     0              442.62371      0.99675455     20249384     
    595000   298.17024     -0.25481061     0              443.25082      0.99947492     20250390     
    596000   298.18632     -0.7520766      0              442.77747      0.9982182      20246049     
    597000   298.17279     -0.5538897      0              442.95553      0.99845368     20244937     
    598000   298.13688     -0.58361095     0              442.8724       0.99825915     20244157     
    599000   298.09867     -0.50438004     0              442.8948       1.0056486      20248121     
    600000   298.16954     -0.86893166     0              442.63566      0.99989902     20250160     
    601000   298.25401     -0.94869767     0              442.68153      0.99691083     20249970     
    602000   298.10612     -0.72694173     0              442.68332      0.99664642     20248180     
    603000   298.27609     -2.1528441      0              441.51023      1.0037806      20245284     
    604000   298.03439     -1.2999641      0              442.00361      1.0077726      20247726     
    605000   298.09733     -1.1526478      0              442.24454      0.9947155      20240956     
    606000   298.17092     -1.4488427      0              442.0578       0.99425707     20241502     
    607000   298.36915     -1.6563096      0              442.14519      0.99666873     20239612     
    608000   297.97127     -0.48087234     0              442.72881      1.0052665      20244307     
    609000   298.14764     -0.5889435      0              442.88308      0.99735355     20249535     
    610000   298.0613      -0.94206699     0              442.40153      1.0113183      20248792     
    611000   298.19267     -0.93507443     0              442.60393      0.99694835     20251013     
    612000   298.17175     -1.3762522      0              442.13164      0.99920618     20249467     
    613000   298.19277     -0.67961924     0              442.85953      0.99786016     20252010     
    614000   298.20745     -0.77554508     0              442.78544      0.99848607     20251965     
    615000   298.05862     -0.53689922     0              442.8027       1.0034976      20255011     
    616000   298.17179     -0.7806069      0              442.72733      1.0022295      20255960     
    617000   298.11823     -0.50451153     0              442.92376      0.99749294     20255280     
    618000   298.26851     -1.5973115      0              442.05449      0.9945805      20249765     
    619000   298.22339     -0.99511791     0              442.58957      0.99679906     20246979     
    620000   298.23266     -0.94971026     0              442.64877      1.001209       20246386     
    621000   298.1409      -0.76231212     0              442.69969      0.99641415     20248550     
    622000   298.2576      -1.6711185      0              441.96446      0.9982783      20248828     
    623000   298.48759     -1.926196       0              442.05148      0.99801644     20254215     
    624000   298.1445      -1.3218462      0              442.1455       0.99564871     20249563     
    625000   298.42762     -1.2628906      0              442.62557      0.99725015     20253689     
    626000   298.11182     -0.66143816     0              442.75731      0.99854795     20259081     
    627000   298.1721      -0.84232942     0              442.66607      1.0045926      20257782     
    628000   298.20314     -0.48208989     0              443.07248      0.99804148     20263369     
    629000   298.16659     -0.58937108     0              442.91083      0.99863869     20262909     
    630000   298.43717     -1.9539613      0              441.94871      0.99897995     20262941     
    631000   298.07277     -0.86333731     0              442.49732      1.0057943      20257351     
    632000   298.28555     -1.0736807      0              442.60346      0.99633259     20251684     
    633000   298.09858     -0.68075326     0              442.7183       0.99636012     20255856     
    634000   298.09518     -0.94282167     0              442.45117      0.99489847     20257122     
    635000   298.3092      -1.8712561      0              441.84107      0.99671533     20261872     
    636000   297.89048      0.017285665    0              443.10679      1.0297126      20259729     
    637000   298.34837     -1.3918346      0              442.37876      1.0058892      20264275     
    638000   297.91436     -1.1485648      0              441.97646      1.0070108      20262677     
    639000   298.07263     -0.69336926     0              442.66707      0.99646508     20260818     
    640000   298.15521     -0.64678482     0              442.8365       1.0032663      20260568     
    641000   298.25118     -1.9936299      0              441.6324       0.99533819     20265820     
    642000   298.35579     -1.4197648      0              442.36186      1.0037978      20265113     
    643000   298.04419     -1.4359239      0              441.88221      0.99982178     20263050     
    644000   298.22317     -1.5659388      0              442.01842      0.99653927     20258619     
    645000   297.98159     -2.1051408      0              441.1199       1.0117579      20259434     
    646000   298.13193     -1.0157287      0              442.43292      1.0015055      20249565     
    647000   298.19182     -1.8058628      0              441.73187      1.000644       20245555     
    648000   298.05851     -1.8394385      0              441.50001      0.9924314      20247649     
    649000   298.2979      -1.7967491      0              441.89877      1.0018169      20245330     
    650000   298.07263     -1.070779       0              442.28967      0.99588057     20238070     
    651000   298.15932     -0.75825523     0              442.73113      1.0020517      20239780     
    652000   298.16114     -0.53115534     0              442.96094      0.99799842     20244820     
    653000   298.12678     -0.96117261     0              442.47982      0.99801645     20249224     
    654000   298.45365     -2.2781442      0              441.64904      0.99553049     20245896     
    655000   298.30033     -1.6615223      0              442.03762      0.99583217     20248663     
    656000   298.16588     -1.4923905      0              442.00676      0.99546099     20248226     
    657000   298.15289     -0.89572509     0              442.58411      1.0091406      20252471     
    658000   298.46048     -1.1563915      0              442.78096      0.99891741     20263861     
    659000   298.40404     -2.1929352      0              441.66045      1.0044351      20266496     
    660000   298.25889     -1.2303735      0              442.40712      0.99313392     20270218     
    661000   298.02162     -0.73729485     0              442.54729      0.99549445     20269798     
    662000   298.24434     -1.2024391      0              442.41341      0.99522986     20268824     
    663000   298.09495     -1.0311413      0              442.3625       0.99538822     20267648     
    664000   298.31603     -1.9622404      0              441.76024      0.99513032     20267422     
    665000   297.98199     -1.136902       0              442.08872      1.0140854      20267181     
    666000   298.13561     -1.4005152      0              442.05361      0.99433227     20265515     
    667000   298.16042     -0.84542282     0              442.64561      0.99706901     20261336     
    668000   298.15316     -0.65302351     0              442.82721      0.99680855     20258093     
    669000   298.13836     -1.2280429      0              442.23017      0.99418694     20256376     
    670000   298.08863     -1.1836504      0              442.2006       0.99459847     20257897     
    671000   298.24813     -1.2200464      0              442.40144      1.0024709      20257938     
    672000   298.15534     -0.73904433     0              442.74442      1.0059263      20256670     
    673000   298.24526     -1.4957811      0              442.12145      0.99831255     20258222     
    674000   297.97569     -0.65621318     0              442.56005      0.99586895     20260723     
    675000   298.33732     -0.84881893     0              442.90534      0.9972148      20259735     
    676000   298.29847     -0.99461539     0              442.70175      0.99598365     20263283     
    677000   298.17521     -1.3987306      0              442.11429      0.99477583     20257957     
    678000   298.03267     -1.1117622      0              442.18924      0.99425547     20257006     
    679000   298.23079     -1.4512508      0              442.14444      0.99700332     20253206     
    680000   298.1157      -0.74200385     0              442.68251      1.0008415      20247966     
    681000   298.16338     -0.55163163     0              442.9438       0.99776968     20247258     
    682000   298.16534     -0.45609479     0              443.04225      1.0068598      20249334     
    683000   298.21339     -0.9491823      0              442.62063      0.99752673     20249413     
    684000   297.89244     -0.37416012     0              442.71827      1.0185929      20250615     
    685000   298.07257     -0.92520083     0              442.43515      1.001242       20249624     
    686000   298.17224     -1.1190017      0              442.38961      0.99432607     20250464     
    687000   298.36184     -1.5607695      0              442.22985      0.99842894     20249104     
    688000   298.27038     -1.202317       0              442.45226      0.99707849     20246438     
    689000   298.2563      -0.88180945     0              442.75184      1.0046676      20245360     
    690000   298.0982      -1.2564108      0              442.14206      0.99500104     20245580     
    691000   298.13231     -0.45541814     0              442.99379      0.99827801     20246638     
    692000   297.95523     -0.8169292      0              442.3689       1.0056964      20250578     
    693000   298.16682     -0.71736374     0              442.78319      1.0094984      20251664     
    694000   298.16785     -0.50648422     0              442.9956       0.99763123     20256384     
    695000   298.15596     -1.5732617      0              441.91113      0.99302987     20253411     
    696000   298.16521     -0.6424904      0              442.85566      0.99759218     20251352     
    697000   298.21822     -1.4447625      0              442.13224      0.99894503     20248181     
    698000   298.18621     -1.5078044      0              442.02158      0.99811831     20249869     
    699000   298.09804     -1.2901398      0              442.1081       1.0058725      20250526     
    700000   298.2571      -1.6134319      0              442.02141      0.99816966     20248166     
    701000   297.86868     -0.12164776     0              442.93544      1.0147061      20250312     
    702000   298.17113     -1.1106492      0              442.39631      1.0000234      20247270     
    703000   298.09129     -0.81693629     0              442.57127      0.99625531     20250807     
    704000   298.07438     -0.67129653     0              442.69175      1.0060421      20250099     
    705000   297.89625     -0.35200902     0              442.74609      1.0076105      20263512     
    706000   298.12726     -1.1253306      0              442.31638      0.99484164     20261588     
    707000   298.18298     -0.7380209      0              442.78656      0.99717594     20255752     
    708000   298.12043     -0.98884202     0              442.44271      1.0073689      20258364     
    709000   298.28144     -1.3851396      0              442.2859       0.99388874     20260765     
    710000   298.13434     -1.1923888      0              442.25984      0.99878937     20253342     
[...]
   1808000   298.01715     -1.1671572      0              442.11077      0.99410043   
   1809000   297.72965     -0.74667444     0              442.10362      0.99495608   
   1810000   298.12149     -1.3276965      0              442.10542      0.99763339   
   1811000   298.48248     -1.8771447      0              442.09292      0.99516909   
   1812000   298.17141     -1.4233767      0              442.084        0.99881995   
   1813000   298.02766     -1.2041779      0              442.08937      0.99611286   
   1814000   297.94318     -1.0803581      0              442.08754      1.0061265    
   1815000   298.24464     -1.5322684      0              442.08402      1.006219     
   1816000   297.91932     -1.0448261      0              442.08759      0.99464528   
   1817000   298.1427      -1.3949183      0              442.06975      0.99270306   
   1818000   298.52409     -1.9497414      0              442.08222      0.99823739   
   1819000   297.99094     -1.1442252      0              442.09471      0.99849801   
   1820000   297.96862     -1.107442       0              442.0983       0.99405006   
   1821000   297.91083     -1.0196917      0              442.10009      0.99476008   
   1822000   298.24468     -1.5091284      0              442.10723      0.99968827   
   1823000   298.51465     -1.9374694      0              442.08045      0.99590389   
   1824000   297.99823     -1.1515093      0              442.09827      0.99412317   
   1825000   297.91245     -1.0113883      0              442.11081      1.0060952    
   1826000   297.88581     -0.98604821     0              442.09651      0.99430379   
   1827000   297.91475     -1.0290992      0              442.09651      0.99535298   
   1828000   298.22219     -1.4774849      0              442.10542      1.0091209    
   1829000   298.01159     -1.1785314      0              442.09113      0.99603947   
   1830000   298.21095     -1.460772       0              442.10542      0.99685011   
   1831000   298.15251     -1.3631304      0              442.11614      0.99373529   
   1832000   298.26915     -1.5598089      0              442.09295      0.99480042   
   1833000   298.11364     -1.3606817      0              442.06077      1.0076026    
   1834000   298.10378     -1.3406514      0              442.06613      0.99410002   
   1835000   298.11299     -1.343669       0              442.0768       1.0024416    
   1836000   298.03321     -1.2053676      0              442.09644      0.99808786   
   1837000   298.24771     -1.5244755      0              442.09638      1.0089137    
   1838000   297.91483     -1.0328654      0              442.09287      1.0004321    
   1839000   298.30429     -1.599691       0              442.10533      1.006264     
   1840000   297.9169      -1.0359588      0              442.09286      0.99484789   
   1841000   297.98943     -1.1581729      0              442.07852      1.0004981    
   1842000   298.59446     -2.0509197      0              442.08571      0.99710895   
   1843000   297.82769     -0.90504531     0              442.09107      0.99460542   
   1844000   297.63108     -0.58941474     0              442.11426      0.99584171   
   1845000   298.19464     -1.4366031      0              442.10533      1.0024334    
   1846000   297.94904     -1.0730297      0              442.10359      0.99415181   
   1847000   297.59578     -0.54404511     0              442.10713      0.99568784   
   1848000   298.14105     -1.372937       0              442.08928      0.9951113    
   1849000   298.10671     -1.3254503      0              442.0857       0.9932767    
   1850000   298.2102      -1.4883359      0              442.07673      0.9982106    
   1851000   298.30039     -1.6385213      0              442.0607       1.0014455    
   1852000   298.14533     -1.3757698      0              442.09282      0.99340485   
   1853000   298.17767     -1.4274776      0              442.08921      0.99761459   
   1854000   297.87841     -0.97688143     0              442.09467      1.0111116    
   1855000   297.98137     -1.1407874      0              442.08392      0.99416515   
   1856000   297.94841     -1.0739385      0              442.10174      1.0002741    
   1857000   297.96417     -1.0937933      0              442.10533      0.99409349   
   1858000   298.01254     -1.1675478      0              442.10352      1.0009546    
   1859000   298.01088     -1.1650952      0              442.10351      0.99670227   
   1860000   297.93144     -1.0541112      0              442.09633      0.99408701   
   1861000   297.95238     -1.0959272      0              442.08565      0.99410041   
   1862000   297.95834     -1.0887401      0              442.10171      0.99532719   
   1863000   298.20652     -1.4525229      0              442.10707      0.99346436   
   1864000   297.92448     -1.0509053      0              442.08918      0.9943935    
   1865000   297.82294     -0.89454568     0              442.09451      0.99448079   
   1866000   298.11804     -1.3245521      0              442.10344      0.99534243   
   1867000   298.20335     -1.4514136      0              442.10347      0.99935135   
   1868000   298.17592     -1.4034682      0              442.11062      0.99423188   
   1869000   297.79894     -0.84986634     0              442.10349      1.0013787    
   1870000   297.69235     -0.68953354     0              442.10528      1.0015931    
   1871000   297.79984     -0.85299184     0              442.1017       0.99610245   
   1872000   297.92684     -1.0401         0              442.1035       0.99868969   
   1873000   297.80949     -0.86912575     0              442.09992      0.99558707   
   1874000   298.01195     -1.1702672      0              442.09992      0.99500875   
   1875000   298.09858     -1.2884241      0              442.11063      0.99744063   
   1876000   298.29737     -1.601985       0              442.09275      0.99721732   
   1877000   297.79934     -0.8558471      0              442.0981       1.0071776    
   1878000   298.05514     -1.2255688      0              442.10887      0.99476205   
   1879000   297.73912     -0.76443948     0              442.09994      0.99471033   
   1880000   298.32346     -1.6407375      0              442.09279      1.0079616    
   1881000   297.98751     -1.1374748      0              442.09636      0.99769294   
   1882000   298.32426     -1.6330007      0              442.10173      0.99837722   
   1883000   298.18505     -1.4491465      0              442.07851      1.0003193    
   1884000   298.25912     -1.552175       0              442.08566      0.99553634   
   1885000   298.7953      -2.3550651      0              442.0803       0.99621965   
   1886000   298.26438     -1.5599945      0              442.08566      0.99340958   
   1887000   298.58725     -2.0492375      0              442.07667      0.9966894    
   1888000   298.47429     -1.8686537      0              442.08923      0.99749814   
   1889000   298.2775      -1.5741574      0              442.09102      0.99515408   
   1890000   297.93056     -1.0456126      0              442.10352      0.99463813   
   1891000   297.94065     -1.0695461      0              442.09459      0.99994345   
   1892000   297.93089     -1.0443212      0              442.10529      0.99445972   
   1893000   298.31504     -1.6210408      0              442.09997      1.0007536    
   1894000   298.3315      -1.6669238      0              442.07857      0.99936646   
   1895000   298.36531     -1.7100743      0              442.08571      0.9942787    
   1896000   297.91896     -1.0300826      0              442.10179      0.99456026   
   1897000   297.50417     -0.42028417     0              442.09463      0.99598502   
   1898000   297.73542     -0.76607924     0              442.0928       1.0056746    
   1899000   297.74106     -0.76372383     0              442.10353      0.99586023   
   1900000   297.79649     -0.83725584     0              442.11246      0.99529643   
   1901000   297.68349     -0.67810216     0              442.10354      0.99511947   
   1902000   297.5314      -0.44473436     0              442.11067      1.0058382    
   1903000   297.62418     -0.58989287     0              442.10352      0.99569158   
   1904000   298.07271     -1.257052       0              442.10351      0.99653804   
   1905000   297.98882     -1.1393961      0              442.09639      0.99457496   
   1906000   298.02805     -1.1852812      0              442.10886      0.99459373   
   1907000   298.95619     -2.5872209      0              442.08745      1.0043071    
   1908000   297.95551     -1.0916289      0              442.09461      0.99592905   
   1909000   297.77968     -0.83376644     0              442.09094      1.0076276    
   1910000   298.03715     -1.2059544      0              442.10172      0.99906725   
   1911000   297.73338     -0.76839973     0              442.08744      0.99473308   
   1912000   298.56651     -2.0129668      0              442.08209      0.99904566   
   1913000   298.48343     -1.8876886      0              442.08379      1.0038645    
   1914000   297.89768     -1.0163319      0              442.08389      1.0006465    
   1915000   297.6824      -0.67471021     0              442.10529      0.99510869   
   1916000   298.00113     -1.1487903      0              442.1053       1.0047841    
   1917000   297.83702     -0.90115414     0              442.10884      0.99476255   
   1918000   297.89909     -0.9881167      0              442.1142       0.99494103   
   1919000   298.01796     -1.1720803      0              442.10705      0.99523703   
   1920000   297.90395     -1.0168015      0              442.09275      0.99779558   
   1921000   297.95486     -1.0746908      0              442.11059      0.99611982   
   1922000   297.84272     -0.9346366      0              442.08383      0.99673673   
   1923000   298.03843     -1.2239577      0              442.08561      0.99449753   
   1924000   298.37345     -1.71518        0              442.09272      1.0024538    
   1925000   297.58574     -0.55066912     0              442.08556      1.0005107    
   1926000   298.07875     -1.2803915      0              442.08915      0.99483626   
   1927000   297.97365     -1.1204867      0              442.09274      1.0014271    
   1928000   297.89687     -1.0170069      0              442.08202      0.99619245   
   1929000   298.2136      -1.4898963      0              442.08023      0.99234293   
   1930000   298.47114     -1.8515509      0              442.10165      0.99907894   
   1931000   297.69821     -0.6893497      0              442.11418      0.9968817    
   1932000   298.04272     -1.217848       0              442.09811      0.99418335   
   1933000   298.33564     -1.6410572      0              442.1106       0.99595366   
   1934000   297.7532      -0.77291951     0              442.11239      0.99561538   
   1935000   298.1884      -1.4416756      0              442.09098      1.001354     
   1936000   299.06261     -2.7598259      0              442.07314      0.99682231   
   1937000   297.99369     -1.1680921      0              442.07494      0.99492563   
   1938000   297.89396     -0.99832144     0              442.09636      0.99495537   
   1939000   297.90973     -1.0128505      0              442.10529      0.99499644   
   1940000   297.98784     -1.1361645      0              442.09816      0.99566795   
   1941000   297.78398     -0.8579338      0              442.07317      0.9942256    
   1942000   298.07431     -1.2844116      0              442.07854      0.99851284   
   1943000   298.06357     -1.2559196      0              442.09105      0.99615514   
   1944000   297.63193     -0.61386505     0              442.09108      1.005121     
   1945000   297.90028     -1.0183552      0              442.08573      0.99413565   
   1946000   298.53548     -1.956044       0              442.09286      1.0088006    
   1947000   297.67218     -0.64696581     0              442.11784      1.0007408    
   1948000   297.60828     -0.55904756     0              442.11071      0.99806977   
   1949000   297.64871     -0.63897662     0              442.09092      1.0127838    
   1950000   298.03625     -1.2152245      0              442.09111      0.99813348   
   1951000   298.05767     -1.2506292      0              442.08757      0.99551885   
   1952000   298.16772     -1.4196916      0              442.0822       0.99434072   
   1953000   297.8527      -0.94037515     0              442.09294      0.99405437   
   1954000   297.90474     -1.005312       0              442.10542      0.99796915   
   1955000   298.13584     -1.3526302      0              442.10184      0.9967893    
   1956000   298.33859     -1.6613351      0              442.09471      1.0012007    
   1957000   298.04397     -1.2123997      0              442.10542      0.99670758   
   1958000   297.70604     -0.70080343     0              442.11437      0.996875     
   1959000   297.79612     -0.8437228      0              442.10544      0.99466984   
   1960000   297.84623     -0.93433849     0              442.08936      0.99597082   
   1961000   297.7646      -0.80932431     0              442.09295      1.0012294    
   1962000   297.55947     -0.49357305     0              442.10359      1.0218913    
   1963000   298.167       -1.4060513      0              442.09476      0.99677545   
   1964000   298.33496     -1.6594346      0              442.09121      0.9992737    
   1965000   297.94355     -1.0701475      0              442.09831      1.005882     
   1966000   297.71924     -0.74002652     0              442.09477      0.99480611   
   1967000   297.79039     -0.84052573     0              442.10011      0.9946128    
   1968000   297.7258      -0.74267894     0              442.10189      0.99569138   
   1969000   298.32772     -1.6362359      0              442.10363      0.9993162    
   1970000   297.76321     -0.79473525     0              442.10548      0.99471008   
   1971000   298.13953     -1.372328       0              442.08762      0.9954623    
   1972000   297.99528     -1.1577786      0              442.08762      1.0038269    
   1973000   297.6668      -0.67458017     0              442.08222      1.0082777    
   1974000   297.83637     -0.91780905     0              442.09122      1.003549     
   1975000   298.07026     -1.2764023      0              442.08052      1.0009747    
   1976000   297.70782     -0.71584286     0              442.10197      0.99577865   
   1977000   297.87742     -0.96814326     0              442.10195      0.99585448   
   1978000   297.9036      -1.0106098      0              442.09841      0.9942391    
   1979000   297.8702      -0.96985942     0              442.08949      1.0106206    
   1980000   297.55472     -0.48453689     0              442.10556      0.99605854   
   1981000   297.95916     -1.0914655      0              442.1002       0.99399699   
   1982000   296.77504      0.68055358     0              442.11094      1.0231504    
   1983000   297.47012     -0.35337709     0              442.11089      1.0077774    
   1984000   297.53472     -0.45122163     0              442.10912      0.99599722   
   1985000   297.60532     -0.55801826     0              442.10734      0.99565623   
   1986000   297.70041     -0.70482539     0              442.10197      0.99506826   
   1987000   297.95231     -1.0848464      0              442.09663      0.99653757   
   1988000   298.00382     -1.1507782      0              442.10733      0.99603077   
   1989000   298.2037      -1.4534152      0              442.10199      0.997397     
   1990000   297.93832     -1.0479479      0              442.11272      1.0066034    
   1991000   298.05855     -1.242908       0              442.09659      0.998397     
   1992000   297.55142     -0.48323433     0              442.10196      1.0115182    
   1993000   297.82463     -0.87710555     0              442.11447      0.99502043   
   1994000   297.61329     -0.57699449     0              442.10022      1.0063215    
   1995000   297.88059     -0.97637861     0              442.09842      0.99411325   
   1996000   297.70677     -0.70538669     0              442.11088      1.0046708    
   1997000   297.9688      -1.1093782      0              442.09664      1.0074059    
   1998000   297.8138      -0.8859723      0              442.08948      0.99427386   
   1999000   297.69618     -0.70031815     0              442.10018      0.99538918   
   2000000   297.51504     -0.43087696     0              442.10019      0.99595862   
   2001000   298.25475     -1.5471777      0              442.08416      0.99265722   
   2002000   298.2165      -1.4831691      0              442.09127      0.99888887   
   2003000   297.73589     -0.76827484     0              442.0913       0.99478095   
   2004000   297.67366     -0.67572117     0              442.09129      1.0047309    
   2005000   297.89726     -0.99409842     0              442.1055       1.0007434    
   2006000   298.04057     -1.2161226      0              442.09664      0.99517817   
   2007000   298.28677     -1.5770168      0              442.10195      0.99645527   
   2008000   297.88605     -0.97912436     0              442.1038       0.9962093    
   2009000   297.73148     -0.75813        0              442.09489      0.99614031   
   2010000   297.99373     -1.1464399      0              442.09665      1.0015175    
   2011000   297.64904     -0.62299779     0              442.10739      0.99615771   
   2012000   298.653       -2.1198935      0              442.1038       0.99791333   
   2013000   297.9362      -1.0626469      0              442.09488      0.99578072   
   2014000   297.64627     -0.61353852     0              442.11273      0.99650427   
   2015000   297.74461     -0.75803828     0              442.1145       0.99777038   
   2016000   298.0792      -1.2646507      0              442.10557      0.99602121   
   2017000   297.91908     -1.037194       0              442.09486      0.99632883   
   2018000   298.03128     -1.1969702      0              442.10197      0.995907     
   2019000   298.57372     -2.0199533      0              442.08583      1.0099187    
   2020000   298.37934     -1.7128793      0              442.10378      0.9937829    
   2021000   297.67628     -0.67248986     0              442.09841      0.99596957   
   2021983   298.25809     -1.5486067      0              442.08771      0.99455301   
Loop time of 10.8082 on 1 procs for 1000000 steps with 500 atoms

Performance: 7993.941 ns/day, 0.003 hours/ns, 92522.461 timesteps/s, 46.261 Matom-step/s
95.7% CPU use with 1 MPI tasks x no OpenMP threads

MPI task timing breakdown:
Section |  min time  |  avg time  |  max time  |%varavg| %total
---------------------------------------------------------------
Pair    | 1.699      | 1.699      | 1.699      |   0.0 | 15.72
Bond    | 0.094404   | 0.094404   | 0.094404   |   0.0 |  0.87
Neigh   | 1.8432     | 1.8432     | 1.8432     |   0.0 | 17.05
Comm    | 1.0602     | 1.0602     | 1.0602     |   0.0 |  9.81
Output  | 0.43725    | 0.43725    | 0.43725    |   0.0 |  4.05
Modify  | 4.2022     | 4.2022     | 4.2022     |   0.0 | 38.88
Other   |            | 1.472      |            |       | 13.62

Nlocal:            500 ave         500 max         500 min
Histogram: 1 0 0 0 0 0 0 0 0 0
Nghost:            152 ave         152 max         152 min
Histogram: 1 0 0 0 0 0 0 0 0 0
Neighs:             59 ave          59 max          59 min
Histogram: 1 0 0 0 0 0 0 0 0 0

Total # of neighbors = 59
Ave neighs/atom = 0.118
Ave special neighs/atom = 0
Neighbor list builds = 15287
Dangerous builds = 0
unfix 7a

Total wall time: 0:00:36
