LAMMPS (7 Feb 2024 - Development - patch_7Feb2024-18-gc6a8f1fe58)
units real
atom_style full
bond_style harmonic
angle_style harmonic
dihedral_style opls
improper_style cvff
pair_style lj/cut 11.0
pair_modify mix geometric
special_bonds lj/coul 0 0 0.5
read_data polymer_builder.data
Reading data file ...
  orthogonal box = (-3.95 -5.02 -4.8) to (23 23.92 22.57)
  1 by 1 by 1 MPI processor grid
  reading atoms ...
  200 atoms
Finding 1-2 1-3 1-4 neighbors ...
  special bond factors lj:    0        0        0.5     
  special bond factors coul:  0        0        0.5     
     0 = max # of 1-2 neighbors
     0 = max # of 1-3 neighbors
     0 = max # of 1-4 neighbors
     1 = max # of special neighbors
  special bonds CPU = 0.000 seconds
  read_data CPU = 0.003 seconds
dump 1 all custom 1000 dump.custom.gz id xu yu zu
dump_modify 1 sort id
min_style fire
minimize 1.0e-6 1.0e-8 10000 100000
Generated 0 of 0 mixed pair_coeff terms from geometric mixing rule
Neighbor list info ...
  update: every = 1 steps, delay = 0 steps, check = yes
  max neighbors/atom: 2000, page size: 100000
  master list distance cutoff = 13
  ghost atom cutoff = 13
  binsize = 6.5, bins = 5 5 5
  1 neighbor lists, perpetual/occasional/extra = 1 0 0
  (1) pair lj/cut, perpetual
      attributes: half, newton on
      pair build: half/bin/newton
      stencil: half/bin/3d
      bin: standard
  Parameters for fire:
    dmax  delaystep dtgrow dtshrink alpha0 alphashrink tmax tmin   integrator   halfstepback   abcfire  
     0.1     20      1.1     0.5     0.25     0.99      10  0.02 eulerimplicit      yes          no     
Per MPI rank memory allocation (min/avg/max) = 6.068 | 6.068 | 6.068 Mbytes
   Step          Temp          E_pair         E_mol          TotEng         Press     
         0   0              21728.31       0              21728.31       292998.28    
       653   0.46606149    -345.90544      0             -345.62898     -92.902551    
Loop time of 0.148735 on 1 procs for 653 steps with 200 atoms

98.0% CPU use with 1 MPI tasks x no OpenMP threads

Minimization stats:
  Stopping criterion = energy tolerance
  Energy initial, next-to-last, final = 
      21728.3101083334  -345.905252180538  -345.905436797019
  Force two-norm initial, final = 24402.509 0.31476225
  Force max component initial, final = 5059.5889 0.14952729
  Final line search alpha, max atom move = 0 0
  Iterations, force evaluations = 653 655

MPI task timing breakdown:
Section |  min time  |  avg time  |  max time  |%varavg| %total
---------------------------------------------------------------
Pair    | 0.1327     | 0.1327     | 0.1327     |   0.0 | 89.22
Bond    | 0.00025657 | 0.00025657 | 0.00025657 |   0.0 |  0.17
Neigh   | 0.0080544  | 0.0080544  | 0.0080544  |   0.0 |  5.42
Comm    | 0.0039212  | 0.0039212  | 0.0039212  |   0.0 |  2.64
Output  | 0          | 0          | 0          |   0.0 |  0.00
Modify  | 0          | 0          | 0          |   0.0 |  0.00
Other   |            | 0.003799   |            |       |  2.55

Nlocal:            200 ave         200 max         200 min
Histogram: 1 0 0 0 0 0 0 0 0 0
Nghost:           1184 ave        1184 max        1184 min
Histogram: 1 0 0 0 0 0 0 0 0 0
Neighs:          10243 ave       10243 max       10243 min
Histogram: 1 0 0 0 0 0 0 0 0 0

Total # of neighbors = 10243
Ave neighs/atom = 51.215
Ave special neighs/atom = 0
Neighbor list builds = 23
Dangerous builds = 0
timestep 1
thermo_modify flush yes
thermo 1000
velocity all create 10 482748
fix 1a all temp/berendsen 10 10 100
fix 1b all nve
run 1000
Generated 0 of 0 mixed pair_coeff terms from geometric mixing rule
Per MPI rank memory allocation (min/avg/max) = 7.332 | 7.332 | 7.332 Mbytes
   Step          Temp          E_pair         E_mol          TotEng         Press     
       653   10            -345.90544      0             -339.97362     -80.792096    
      1000   8.414965      -340.0771       0             -335.0855      -115.23599    
      1653   11.107376     -340.84116      0             -334.25247     -106.35889    
Loop time of 0.124096 on 1 procs for 1000 steps with 200 atoms

Performance: 696.237 ns/day, 0.034 hours/ns, 8058.297 timesteps/s, 1.612 Matom-step/s
98.3% CPU use with 1 MPI tasks x no OpenMP threads

MPI task timing breakdown:
Section |  min time  |  avg time  |  max time  |%varavg| %total
---------------------------------------------------------------
Pair    | 0.11512    | 0.11512    | 0.11512    |   0.0 | 92.76
Bond    | 0.00016875 | 0.00016875 | 0.00016875 |   0.0 |  0.14
Neigh   | 0.00029129 | 0.00029129 | 0.00029129 |   0.0 |  0.23
Comm    | 0.0044758  | 0.0044758  | 0.0044758  |   0.0 |  3.61
Output  | 0.00033026 | 0.00033026 | 0.00033026 |   0.0 |  0.27
Modify  | 0.0025044  | 0.0025044  | 0.0025044  |   0.0 |  2.02
Other   |            | 0.00121    |            |       |  0.98

Nlocal:            200 ave         200 max         200 min
Histogram: 1 0 0 0 0 0 0 0 0 0
Nghost:           1186 ave        1186 max        1186 min
Histogram: 1 0 0 0 0 0 0 0 0 0
Neighs:          10190 ave       10190 max       10190 min
Histogram: 1 0 0 0 0 0 0 0 0 0

Total # of neighbors = 10190
Ave neighs/atom = 50.95
Ave special neighs/atom = 0
Neighbor list builds = 1
Dangerous builds = 0
unfix 1b
unfix 1a

fix 2a all press/berendsen iso 1 1 10000
fix 2b all temp/berendsen 10 298.15 100
fix 2c all nve
run 100000
Generated 0 of 0 mixed pair_coeff terms from geometric mixing rule
Per MPI rank memory allocation (min/avg/max) = 7.332 | 7.332 | 7.332 Mbytes
   Step          Temp          E_pair         E_mol          TotEng         Press          Volume    
      1653   11.107376     -340.84116      0             -334.25247     -106.35889      21346.766    
      2000   10.885009     -341.53437      0             -335.07758     -2.3107231      21052.135    
      3000   13.976318     -345.97342      0             -337.68293     -16.106679      18731.583    
      4000   18.320536     -356.87167      0             -346.00427     -18.264929      15481.283    
      5000   20.547726     -372.13468      0             -359.94615     -6.8516845      13463.243    
      6000   23.994424     -383.54639      0             -369.31335     -6.2899021      12479.812    
      7000   25.969448     -392.53146      0             -377.12688     -3.6985184      11711.111    
      8000   29.643091     -401.39651      0             -383.81279     -2.2173644      11265.276    
      9000   29.745145     -404.66366      0             -387.0194      -0.57392131     11027.216    
     10000   33.978544     -408.98371      0             -388.82828     -1.8234266      10883.72     
     11000   37.495646     -412.09378      0             -389.85207      0.63671874     10808.825    
     12000   40.805725     -411.65723      0             -387.45204      3.8479639      10805.6      
     13000   43.15002      -410.39748      0             -384.8017       0.67687043     10833.099    
     14000   45.774639     -410.20512      0             -383.05246      5.0781829      10843.119    
     15000   45.508887     -405.13503      0             -378.14001      9.9103519      10929.489    
     16000   52.760933     -405.54178      0             -374.24498      1.5201054      10929.934    
     17000   53.492288     -401.86253      0             -370.13191      4.4159681      10986.702    
     18000   57.453269     -400.27586      0             -366.19566      2.1807207      11038.131    
     19000   59.384854     -393.86771      0             -358.64173     -9.7484729      11183.11     
     20000   63.873072     -396.24351      0             -358.3552      -8.6984147      11121.062    
     21000   64.242372     -391.51229      0             -353.40492      3.4346868      11213.336    
     22000   69.939611     -391.63327      0             -350.14641      9.3888011      11211.637    
     23000   70.599573     -384.6552       0             -342.77686     -1.4634489      11352.597    
     24000   74.65042      -379.56538      0             -335.28415     -2.1286998      11491.572    
     25000   73.705239     -378.83147      0             -335.1109       2.059076       11489.164    
     26000   80.597312     -375.59136      0             -327.78255     -15.416571      11559.863    
     27000   80.459099     -368.32849      0             -320.60167     -2.4546264      11739.586    
     28000   82.396045     -359.94884      0             -311.07305      2.5749933      11944.248    
     29000   89.301094     -365.57371      0             -312.60198     -1.5660599      11813.882    
     30000   95.875334     -357.50519      0             -300.63374     -7.7031771      12036.591    
     31000   92.144024     -346.90678      0             -292.24868      0.86054249     12356.205    
     32000   97.704756     -342.62307      0             -284.66644      15.207853      12436.09     
     33000   99.188942     -334.97647      0             -276.13945     -0.81425398     12686.543    
     34000   103.4058      -334.24626      0             -272.90789      9.7924775      12641.619    
     35000   100.50694     -317.66048      0             -258.04166      21.426356      13190.207    
     36000   104.63345     -317.25794      0             -255.19134      2.0922045      13170.999    
     37000   109.01529     -323.4431       0             -258.77727      6.2526819      13005.762    
     38000   112.92977     -302.42361      0             -235.43579     -0.01000441     13798.887    
     39000   119.36246     -313.33572      0             -242.53215     -4.2268288      13329.307    
     40000   121.26649     -318.53487      0             -246.60186     -13.021609      13205.343    
     41000   117.54675     -303.57522      0             -233.84869      19.328945      13685.327    
     42000   129.51607     -299.48998      0             -222.66349      8.0252664      13907.978    
     43000   132.93185     -296.61093      0             -217.75826     -2.1651992      14086.59     
     44000   129.3441      -282.62464      0             -205.90016     -15.422255      14631.86     
     45000   134.1112      -284.04529      0             -204.49305     -2.0563616      14464.796    
     46000   129.16777     -266.80665      0             -190.18675      7.3094997      15295.291    
     47000   139.566       -267.33474      0             -184.54681      4.8179869      15205.749    
     48000   140.81727     -264.25651      0             -180.72635      3.4119443      15410.725    
     49000   142.2869      -264.68365      0             -180.28173     -17.334164      15427.169    
     50000   153.74368     -257.04286      0             -165.845       -11.256339      16118.987    
     51000   144.14398     -234.20103      0             -148.69754      20.578826      17066.704    
     52000   155.68371     -244.71142      0             -152.36276      19.969854      16759.305    
     53000   153.74694     -223.71551      0             -132.51571      20.050864      18207.496    
     54000   160.41873     -223.06089      0             -127.90351      11.787183      18092.097    
     55000   160.70163     -202.98633      0             -107.66114     -16.722458      19639.797    
     56000   163.24962     -206.71283      0             -109.87623     -6.744667       19185.641    
     57000   161.48049     -193.97551      0             -98.188323      40.840041      20390.186    
     58000   166.57178     -171.62868      0             -72.821432      22.326858      23404.915    
     59000   172.92471     -171.60295      0             -69.027256      9.0856706      23187.868    
     60000   175.63051     -149.72793      0             -45.54721       18.704231      27365.667    
     61000   174.51776     -118.92975      0             -15.409097      50.163716      36583.593    
     62000   179.81715     -96.267368      0              10.396784      54.608552      46634.966    
     63000   186.42595     -71.519132      0              39.065239      28.551893      68040.857    
     64000   188.48038     -55.80086       0              56.002157      36.622491      94935.659    
     65000   192.76478     -45.69343       0              68.651013      26.140705      129279.8     
     66000   194.58461     -34.242648      0              81.181285      23.1252        167950.16    
     67000   198.56745     -26.335587      0              91.450888      19.533301      206024.99    
     68000   201.59214     -22.204857      0              97.375811      17.170284      249083.96    
     69000   202.37516     -16.874563      0              103.17058      19.462331      295332.5     
     70000   208.17386     -17.9755        0              105.50932      13.890774      342503.72    
     71000   207.96438     -14.240172      0              109.12039      14.985825      389454.38    
     72000   212.57939     -11.473814      0              114.62428      11.717079      437979.17    
     73000   216.18718     -11.244813      0              116.99336      11.174171      487876.45    
     74000   218.21299     -12.862041      0              116.5778       9.6084446      538676.29    
     75000   219.93442     -8.7702919      0              121.69067      10.422253      590089.46    
     76000   223.83736     -8.3541327      0              124.42198      9.0222294      640713.13    
     77000   226.46121     -7.1755622      0              127.15697      8.5283528      693402.96    
     78000   229.81945     -6.5606832      0              129.76389      8.2577582      747227.6     
     79000   232.45283     -7.6011336      0              130.28552      7.6428236      799230.76    
     80000   235.49371     -4.7545307      0              134.93591      7.6732001      852946.77    
     81000   238.96279     -6.2429053      0              135.50533      6.7692649      907736.15    
     82000   241.27085     -4.6886979      0              138.42863      6.6389863      962877.55    
     83000   243.40142     -4.5954238      0              139.78572      6.7754144      1017390.2    
     84000   246.31772     -4.0780785      0              142.03296      6.28803        1072288.4    
     85000   250.27696     -3.4551408      0              145.00445      5.8136454      1127038.5    
     86000   253.52038     -4.3951267      0              145.98839      5.6964609      1182934.6    
     87000   257.26519     -4.2367595      0              148.36811      5.3939111      1239057      
     88000   259.40899     -4.1147577      0              149.76178      5.3133947      1295154.4    
     89000   259.84641     -2.0351487      0              152.10086      5.4491315      1350520.2    
     90000   264.48314     -2.7190696      0              154.16735      5.1042296      1407428.8    
     91000   267.12902     -2.7370334      0              155.71888      4.7667206      1463849.1    
     92000   270.46098     -3.9348942      0              156.49747      4.6605638      1520910.1    
     93000   273.21996     -2.480299       0              159.58864      4.6098791      1578620      
     94000   276.34002     -3.149346       0              160.77036      4.4525422      1636135.4    
     95000   277.91139     -1.8596885      0              162.99213      4.5988172      1695054.4    
     96000   281.86791     -2.0989578      0              165.09979      4.2631087      1753099.5    
     97000   284.30895     -1.9259192      0              166.7208       4.1702011      1811467.2    
     98000   287.28206     -2.7168872      0              167.69343      4.0842172      1870023.1    
     99000   290.26313     -1.8242864      0              170.35434      3.9911907      1927941.8    
    100000   293.84636     -3.0929009      0              171.21124      4.0337015      1986996.6    
    101000   294.87217     -1.0595206      0              173.85311      4.0102554      2047122.2    
    101653   298.02844     -3.0812114      0              173.70366      3.7875914      2086384.9    
Loop time of 11.0372 on 1 procs for 100000 steps with 200 atoms

Performance: 782.808 ns/day, 0.031 hours/ns, 9060.281 timesteps/s, 1.812 Matom-step/s
98.1% CPU use with 1 MPI tasks x no OpenMP threads

MPI task timing breakdown:
Section |  min time  |  avg time  |  max time  |%varavg| %total
---------------------------------------------------------------
Pair    | 9.8376     | 9.8376     | 9.8376     |   0.0 | 89.13
Bond    | 0.022777   | 0.022777   | 0.022777   |   0.0 |  0.21
Neigh   | 0.24861    | 0.24861    | 0.24861    |   0.0 |  2.25
Comm    | 0.3943     | 0.3943     | 0.3943     |   0.0 |  3.57
Output  | 0.020161   | 0.020161   | 0.020161   |   0.0 |  0.18
Modify  | 0.39396    | 0.39396    | 0.39396    |   0.0 |  3.57
Other   |            | 0.1198     |            |       |  1.09

Nlocal:            200 ave         200 max         200 min
Histogram: 1 0 0 0 0 0 0 0 0 0
Nghost:            149 ave         149 max         149 min
Histogram: 1 0 0 0 0 0 0 0 0 0
Neighs:             77 ave          77 max          77 min
Histogram: 1 0 0 0 0 0 0 0 0 0

Total # of neighbors = 77
Ave neighs/atom = 0.385
Ave special neighs/atom = 0
Neighbor list builds = 1069
Dangerous builds = 0
unfix 2c
unfix 2b
unfix 2a

variable xl equal "xhi - xlo"
variable yl equal "yhi - ylo"
variable zl equal "zhi - zlo"
fix xyzl all ave/time 1 1000 1000 v_xl v_yl v_zl file xyzl.data

fix 4a all press/berendsen iso 1 1 1000
fix 4b all temp/berendsen 298.15 298.15 100
fix 4c all nve
run 1000000
Generated 0 of 0 mixed pair_coeff terms from geometric mixing rule
Per MPI rank memory allocation (min/avg/max) = 7.43 | 7.43 | 7.43 Mbytes
   Step          Temp          E_pair         E_mol          TotEng         Press          Volume    
    101653   298.02844     -3.0811386      0              173.70373      3.7875832      2086384.9    
    102000   297.85592     -2.1173659      0              174.56517      3.463275       2289862.3    
    103000   298.01739     -1.5983661      0              175.17995      2.8494473      2837438.8    
    104000   297.85228     -1.39147        0              175.2889       2.3983821      3327403      
    105000   298.1312      -0.93607        0              175.90975      2.1208885      3773264.8    
    106000   298.3172      -0.82969296     0              176.12646      1.9154155      4175137.3    
    107000   298.10094     -0.82335536     0              176.00452      1.770005       4548786.8    
    108000   298.41812     -0.76307532     0              176.25294      1.6419467      4883539.6    
    109000   295.55349      1.7234233      0              177.0402       1.7279027      5191618.4    
    110000   298.26991     -0.4719978      0              176.4561       1.4710587      5471651.6    
    111000   298.14651     -0.15329912     0              176.70161      1.4098668      5719542.5    
    112000   298.12866     -0.71177445     0              176.13254      1.3610253      5943473.9    
    113000   298.2058      -0.25668558     0              176.63339      1.3100647      6146866.8    
    114000   298.48399     -1.0235522      0              176.03154      1.2614252      6329705.2    
    115000   298.56151      0.10855716     0              177.20963      1.2869385      6495797      
    116000   298.17137     -0.21914003     0              176.65051      1.2124201      6644544.9    
    117000   297.95545     -0.30861988     0              176.43295      1.1859006      6778549.6    
    118000   298.1105      -0.41213621     0              176.42141      1.1646552      6903206.8    
    119000   298.04612     -0.37986787     0              176.41548      1.1453702      7014040      
    120000   297.97634     -0.37096895     0              176.38299      1.1293253      7111498.9    
    121000   297.97027     -0.29443495     0              176.45593      1.1166935      7201346.1    
    122000   298.24133     -0.74365016     0              176.1675       1.1115964      7281612.7    
    123000   297.95608     -0.93960621     0              175.80234      1.0851293      7353268.9    
    124000   298.04052     -0.51493012     0              176.2771       1.0808768      7422722.8    
    125000   298.31634     -0.47056308     0              176.48508      1.0749499      7482497.6    
    126000   298.00657     -0.16005019     0              176.61184      1.0687195      7541750.2    
    127000   298.51281     -0.67590046     0              176.39628      1.0580248      7591134.4    
    128000   298.23426     -0.32311122     0              176.58385      1.054796       7638063.8    
    129000   298.14848     -0.089382493    0              176.76669      1.0510461      7680524.4    
    130000   298.39951     -0.54777636     0              176.45721      1.0439753      7717242.1    
    131000   298.20636     -0.22054014     0              176.66987      1.0392345      7752348.8    
    132000   298.37587     -0.90463067     0              176.08632      1.0316399      7787529.9    
    133000   298.18914     -0.66063176     0              176.21956      1.0325116      7811234.4    
    134000   298.13553     -1.1702356      0              175.67816      1.0280487      7833385      
    135000   298.76503     -1.1476755      0              176.07412      1.0201167      7856928.9    
    136000   298.23938     -0.83946737     0              176.07053      1.0161581      7879174.1    
    137000   298.46892     -0.67641869     0              176.36973      1.0211399      7894935.9    
    138000   298.17394     -0.28680731     0              176.58437      1.0168348      7915668.4    
    139000   298.2754      -0.60736847     0              176.32399      1.0136492      7927136.3    
    140000   298.06896     -0.37251059     0              176.43639      1.0116366      7943472.7    
    141000   298.34908     -0.7343985      0              176.24066      1.0144702      7957742.2    
    142000   298.12518     -0.23061984     0              176.61163      1.0109941      7966209.7    
    143000   298.08223     -0.49556457     0              176.32121      1.0085926      7976369.6    
    144000   298.52627     -0.49114043     0              176.58903      1.019378       7985759.8    
    145000   298.16534     -0.1236851      0              176.74239      1.009508       7992356.3    
    146000   297.24005      0.35077772     0              176.66799      1.0573746      8004544      
    147000   298.36706     -0.76891007     0              176.21682      1.0289506      8019731.5    
    148000   298.26342     -0.98582233     0              175.93843      1.000687       8020398.6    
    149000   298.11238     -0.9772446      0              175.85742      1.0041111      8016963      
    150000   298.20281     -0.8056488      0              176.08265      1.0018         8021729.8    
    151000   298.12158     -0.15361238     0              176.6865       1.0047525      8025322.1    
    152000   298.14531     -0.25285111     0              176.60134      1.002691       8030448.1    
    153000   298.15184     -0.37737212     0              176.48069      1.0004153      8033425.7    
    154000   298.37271     -0.44185291     0              176.54723      1.0020776      8034961.4    
    155000   298.09331     -0.91099172     0              175.91235      0.99614543     8040186.8    
    156000   298.35473     -0.56284137     0              176.41557      0.99845104     8038581.1    
    157000   298.17124     -0.51504254     0              176.35453      0.99961994     8039481.9    
    158000   298.37013     -1.0644115      0              175.92314      0.99866684     8046116.3    
    159000   298.30407     -0.99061037     0              175.95776      0.99227554     8053099.1    
    160000   298.1326      -0.77332259     0              176.07333      0.99243764     8052196.3    
    161000   298.18097     -0.83375603     0              176.04159      0.99882977     8058918.3    
    162000   298.38061     -0.63391869     0              176.35985      1.0070705      8058712.6    
    163000   297.8937      -0.52888216     0              176.17606      0.99383877     8058945.8    
    164000   298.14912     -0.23045529     0              176.626        0.99932851     8059628.7    
    165000   298.17755     -0.69254032     0              176.18078      0.99924465     8060593.1    
    166000   298.30571     -1.2549398      0              175.6944       0.99129497     8056763.2    
    167000   297.68774     -0.81353611     0              175.76924      1.0179842      8054957.2    
    168000   298.24549     -0.38648979     0              176.52713      0.99723461     8061601.4    
    169000   298.24805     -0.51435842     0              176.40078      0.99513245     8065278.8    
    170000   298.06872     -0.32034147     0              176.48842      0.996715       8071895.4    
    171000   298.29924     -0.92887605     0              176.01663      0.99485112     8069470.5    
    172000   298.39801     -0.84383719     0              176.16025      0.99401096     8068099.6    
    173000   298.43857     -0.92363408     0              176.10452      0.99885566     8066852.3    
    174000   298.14508     -0.56446257     0              176.28959      0.99353636     8065072.9    
    175000   298.00284     -0.49483216     0              176.27485      0.9943558      8066187.6    
    176000   298.13978     -0.73590993     0              176.115        0.9962881      8064718.3    
    177000   297.84232     -0.91134555     0              175.76312      0.99671191     8065859.9    
    178000   298.18625     -1.0297157      0              175.84876      0.98998744     8067706.4    
    179000   297.99115     -0.54535111     0              176.2174       0.99378216     8061942.7    
    180000   298.14155     -0.70372166     0              176.14824      0.99610232     8061630.2    
    181000   298.06654     -0.71172397     0              176.09574      1.0044578      8059026.3    
    182000   298.30359     -0.77675625     0              176.17132      1.0084472      8062906.1    
    183000   298.01267     -0.37733023     0              176.39818      1.0196473      8062184.6    
    184000   298.41126     -0.66499306     0              176.34695      0.99347364     8064677.8    
    185000   297.44974     -0.41614399     0              176.02545      1.0229283      8064048.1    
    186000   298.12997     -0.26925328     0              176.57584      0.99808442     8064949.6    
    187000   297.92017     -0.84216975     0              175.87848      1.008324       8065896.2    
    188000   298.10391     -0.3075951      0              176.52204      0.99707967     8067082.7    
    189000   298.41818     -0.93580722     0              176.08025      0.9966283      8066637.4    
    190000   298.42671     -0.95582396     0              176.06529      0.99864574     8070076.8    
    191000   298.33056     -0.95295654     0              176.01112      0.99019231     8071461      
    192000   298.28588     -0.86636217     0              176.07122      0.99116546     8072982.7    
    193000   298.15686     -0.35154638     0              176.5095       0.99670948     8070172.8    
    194000   298.39445     -0.86789518     0              176.13408      0.99438129     8067955.5    
    195000   298.03671     -0.9202895      0              175.86948      0.99914288     8067216.4    
    196000   297.98024     -0.47958063     0              176.27669      0.99464631     8068770.1    
    197000   298.15873     -0.7037443      0              176.15841      0.99276698     8068280.1    
    198000   298.12292     -0.7383052      0              176.1026       0.99380398     8064475.7    
    199000   298.22854     -1.0471323      0              175.85643      1.0003279      8062272      
    200000   298.14658     -0.49772829     0              176.35722      1.0076253      8060354.1    
    201000   298.25064     -0.85053668     0              176.06614      1.0044471      8061499.3    
    202000   298.18481     -0.70902531     0              176.1686       0.99531985     8060498.5    
    203000   298.59369     -1.0900214      0              176.03014      0.99246784     8060462.6    
    204000   298.11103     -0.61079633     0              176.22306      0.99433898     8058850.5    
    205000   298.05189     -0.54282935     0              176.25595      0.99558551     8057447.3    
    206000   298.15129     -0.65693988     0              176.2008       0.99415248     8062318.1    
    207000   298.06866     -0.6743374      0              176.13439      0.99289336     8061497.1    
    208000   298.09142     -0.70729964     0              176.11493      0.99670103     8069247.3    
    209000   298.13125     -0.4406986      0              176.40516      0.99602934     8067609.9    
    210000   298.36675     -1.7137905      0              175.27176      1.0051776      8066118.5    
    211000   296.98288     -0.21275845     0              175.9519       1.0565304      8068215.8    
    212000   298.4443      -1.0119544      0              176.0196       0.99730288     8073268.1    
    213000   297.9826      -0.93264714     0              175.82503      1.0035719      8068761.3    
    214000   298.00935     -0.90891376     0              175.86463      1.0146065      8066355.5    
    215000   298.30968     -1.4171283      0              175.53456      0.9961095      8070802.8    
    216000   298.42788     -0.91638707     0              176.10542      0.99760643     8068509.7    
    217000   298.12433     -0.44655937     0              176.39519      0.99608919     8068172.1    
    218000   298.15471     -0.38296113     0              176.47681      0.99653088     8068880.7    
    219000   298.12358     -0.51130246     0              176.33         0.99496421     8073043.9    
    220000   297.96578     -0.55251615     0              176.19518      0.99252177     8075913.4    
    221000   298.7032      -1.569745       0              175.61538      0.99355658     8076406.7    
    222000   298.0701      -0.92027408     0              175.8893       1.0031978      8072604.4    
    223000   297.94239     -0.74918175     0              175.98464      1.0055211      8073392.2    
    224000   298.23044     -0.68334368     0              176.22135      0.99349029     8074520.2    
    225000   298.14148     -1.0793327      0              175.77259      0.99405812     8071273.5    
    226000   298.27982     -1.3862032      0              175.54778      1.0140831      8070619.8    
    227000   298.19365     -1.0512818      0              175.83159      0.99533555     8073161.6    
    228000   298.06156     -0.68135582     0              176.12316      0.99337642     8071717.5    
    229000   298.24391     -0.55096486     0              176.36171      0.99554796     8070559      
    230000   297.95852     -0.69703865     0              176.04635      0.99176367     8073810.1    
    231000   298.1988      -0.38015176     0              176.50577      0.99656855     8075329.9    
    232000   298.36318     -0.7199752      0              176.26345      0.99502367     8075308.3    
    233000   298.16992     -0.36415034     0              176.50464      0.99556705     8081141.2    
    234000   298.08008     -0.37191684     0              176.44358      0.99515766     8080508.4    
    235000   298.24908     -0.51615529     0              176.39959      0.99345785     8078563.7    
    236000   297.18644     -0.24011708     0              176.04529      1.0238048      8076987      
    237000   297.99716     -0.78467822     0              175.98163      0.99169448     8075269.8    
    238000   298.00566     -0.64155212     0              176.1298       0.99167867     8075000.9    
    239000   297.7956      -0.59769715     0              176.04905      1.0154221      8076445.8    
    240000   298.57861     -1.4474646      0              175.66375      1.0015439      8078346.1    
    241000   298.00733     -1.01014        0              175.76221      0.99332823     8073916.6    
    242000   298.08748     -0.68003936     0              176.13985      0.99817973     8071416.1    
    243000   298.14271     -0.81873685     0              176.03391      0.99434053     8070718.3    
    244000   298.03468     -0.67320763     0              176.11536      0.99465504     8073076.1    
    245000   298.06542     -1.2392146      0              175.56759      0.98991644     8073360      
    246000   298.19508     -1.0220665      0              175.86165      0.99482642     8069350.9    
    247000   298.22034     -0.82698454     0              176.07171      0.99843113     8067296.5    
    248000   298.07708     -1.3180174      0              175.4957       0.9955478      8073428.7    
    249000   298.19037     -0.66358368     0              176.21734      0.99927078     8072798.4    
    250000   298.50204     -1.0927704      0              175.97303      0.99683368     8071850.3    
    251000   298.15319     -1.0231903      0              175.83567      0.99745321     8070638.9    
    252000   298.00169     -0.82327759     0              175.94572      1.0044197      8069080.8    
    253000   298.03771     -0.87101615     0              175.91935      1.0081522      8068668.8    
    254000   298.43633     -1.3763747      0              175.65045      1.0044927      8068839      
    255000   298.17988     -0.85068528     0              176.02401      1.0018013      8070178.8    
    256000   298.15305     -0.68730317     0              176.17148      0.99899072     8069802.9    
    257000   298.15238     -0.35749624     0              176.50089      1.0020261      8069737.4    
    258000   298.23418     -0.40196812     0              176.50494      1.0001197      8070048      
    259000   298.19356     -0.92789063     0              175.95492      1.0003364      8076775.4    
    260000   297.99178     -0.84013558     0              175.92298      0.99180469     8074036      
    261000   298.29719     -0.58423718     0              176.36005      0.99469161     8073763.4    
    262000   298.06126     -0.49562359     0              176.30871      0.99449627     8075669.9    
    263000   298.15231     -1.0334245      0              175.82492      0.99343849     8075949.4    
    264000   298.23342     -0.43399271     0              176.47247      0.99598952     8073801.3    
    265000   298.25945     -0.53046948     0              176.39143      0.99447438     8072883.7    
    266000   298.16666     -0.26420341     0              176.60265      0.99809199     8073774.8    
    267000   298.20873     -0.38140315     0              176.51041      0.99613052     8076267.4    
    268000   298.01817     -0.46285174     0              176.31592      0.99420033     8076379.5    
    269000   298.14361     -0.32749757     0              176.52568      0.99619359     8078470.4    
    270000   298.12365     -0.32392286     0              176.51742      0.99601598     8079575.6    
    271000   298.15565     -0.33198735     0              176.52834      0.9958773      8080850.8    
    272000   298.26843     -0.90697194     0              176.02025      0.98927288     8078885.3    
    273000   297.95829     -1.3197585      0              175.4235       1.0063726      8077707.7    
    274000   298.1953      -1.3308189      0              175.55303      0.99255919     8071399.8    
    275000   298.16211     -0.77931992     0              176.08484      0.9953761      8069190      
    276000   297.94963     -1.1066499      0              175.63147      0.99559653     8067490.7    
    277000   297.71519     -0.74679551     0              175.85226      1.0161273      8064880.1    
    278000   298.08348     -0.62686351     0              176.19065      0.99711752     8065298.5    
    279000   298.07775     -0.66440635     0              176.14971      0.99587584     8064339.6    
    280000   298.09993     -1.1019503      0              175.72532      0.9956403      8064072.4    
    281000   298.31095     -0.97734755     0              175.9751       0.99282087     8061988.1    
    282000   297.95315     -0.82727421     0              175.91294      1.0075121      8062521.4    
    283000   298.13147     -0.9009304      0              175.94505      0.99642817     8062951.8    
    284000   298.11675     -0.64018851     0              176.19706      0.99760523     8062087.3    
    285000   298.31699     -0.96112918     0              175.9949       0.99482374     8061511.8    
    286000   298.12036     -0.74929385     0              176.0901       0.99808574     8061377.7    
    287000   298.02833     -0.97273726     0              175.81207      1.0058569      8064133      
    288000   298.1012      -0.79081185     0              176.03721      0.99641113     8062923.7    
    289000   298.07602     -1.3111579      0              175.50193      1.0087491      8062920.7    
    290000   298.1329      -1.030222       0              175.81661      0.99103827     8068855      
    291000   298.15169     -1.0567576      0              175.80122      0.992299       8066488.6    
    292000   298.09825     -0.8819242      0              175.94436      0.99485145     8064928.6    
    293000   298.37546     -1.155626       0              175.83509      0.99508713     8062097.8    
    294000   298.15921     -1.1910773      0              175.67136      1.0045963      8060618.9    
    295000   297.41533     -0.65601335     0              175.76517      1.0314673      8060058.8    
    296000   298.33914     -1.0678529      0              175.90132      1.005067       8060284.4    
    297000   298.09556     -0.6852393      0              176.13945      1.007795       8059768.6    
    298000   298.1595      -1.4287372      0              175.43387      1.0093157      8059277.6    
    299000   298.17719     -0.81142873     0              176.06168      1.0059047      8057030.1    
    300000   297.92761     -0.66494441     0              176.06012      1.0060785      8059081.5    
    301000   298.1231      -0.63934911     0              176.20167      1.0062444      8059298      
    302000   298.18318     -0.91932918     0              175.95733      1.0029875      8060406.2    
    303000   298.19757     -1.3386337      0              175.54656      1.0141136      8061958.6    
    304000   298.21601     -1.6785485      0              175.21758      1.0047609      8060442      
    305000   298.06263     -1.0496479      0              175.7555       0.99936832     8057603.4    
    306000   298.30119     -1.0616879      0              175.88497      1.0012096      8056683      
    307000   298.20536     -1.2024805      0              175.68733      0.99806391     8058679.3    
    308000   298.47921     -1.4763076      0              175.57595      0.99221815     8058532.1    
    309000   297.9967      -1.0543172      0              175.71172      0.99326812     8056658.7    
    310000   298.09261     -1.1164958      0              175.70643      0.9940327      8052521.5    
    311000   298.91918     -1.3041834      0              176.00906      1.0037225      8055457.7    
    312000   298.39913     -1.0326029      0              175.97215      0.99995101     8055770.1    
    313000   298.35897     -1.1307896      0              175.85014      1.0074966      8061069      
    314000   298.09139     -0.92163389     0              175.90058      0.99575825     8061516.8    
    315000   298.46282     -1.0934139      0              175.94912      0.99459938     8062124.9    
    316000   298.31351     -1.0331771      0              175.92079      0.99311165     8062140.7    
    317000   298.37873     -1.4159238      0              175.57673      0.99488179     8060817      
    318000   298.19647     -1.4913156      0              175.39323      0.99114966     8059107      
    319000   298.10924     -0.65383338     0              176.17896      0.9994801      8056022.3    
    320000   298.848       -0.98617167     0              176.28484      1.0124549      8060074.9    
    321000   298.33551     -1.0485985      0              175.91841      0.99712516     8059200.6    
    322000   298.36653     -0.99836463     0              175.98705      0.99811818     8059865.5    
    323000   298.19687     -0.93007154     0              175.95471      0.99377994     8064703.6    
    324000   295.88394      0.45618039     0              175.96897      1.0767558      8068245      
    325000   298.56675     -1.2706276      0              175.83356      1.0055861      8067734      
    326000   298.273       -1.0577931      0              175.87215      0.99321182     8063102.3    
    327000   298.47235     -1.1484842      0              175.8997       0.99551561     8063029.5    
    328000   298.02842     -0.78987565     0              175.99498      0.99778517     8059175.2    
    329000   298.10313     -0.94283094     0              175.88634      1.0129852      8058828.3    
    330000   298.25761     -0.92797084     0              175.99284      0.99502188     8059647.3    
    331000   298.43302     -1.5588013      0              175.46605      0.99329302     8061913.4    
    332000   298.23443     -1.396253       0              175.5108       0.98765889     8063481.6    
    333000   298.68385     -1.1874643      0              175.98618      0.99296118     8067418.8    
    334000   298.54241     -1.4866506      0              175.60309      1.0153793      8068092.1    
    335000   298.32724     -0.97598777     0              175.98612      0.99535031     8064915.9    
    336000   298.38435     -1.0628622      0              175.93312      0.9958856      8068275.5    
    337000   298.16849     -0.67195355     0              176.19599      0.99913317     8065499      
    338000   298.27253     -0.90649353     0              176.02316      1.004673       8064986.7    
    339000   298.28852     -0.77574171     0              176.1634       0.99564552     8066828.7    
    340000   298.12697     -0.74287168     0              176.10044      0.99481345     8068916.1    
    341000   298.25111     -0.70263692     0              176.21432      0.99645056     8068040.6    
    342000   298.19353     -0.89660511     0              175.98619      1.0069669      8068777.6    
    343000   298.27356     -1.0355491      0              175.89472      0.99348198     8071882.2    
    344000   298.05421     -0.97580259     0              175.82435      0.99438534     8075040.4    
    345000   298.23069     -0.852164       0              176.05268      0.99594729     8073259      
    346000   298.27736     -0.87181597     0              176.0607       0.99487118     8072793      
    347000   298.09476     -0.86124902     0              175.96296      0.99387532     8070007.7    
    348000   298.147       -0.94025049     0              175.91495      1.004632       8072814.2    
    349000   298.26526     -0.85519611     0              176.07015      0.9952662      8071132.9    
    350000   298.36935     -0.84802239     0              176.13907      0.99656504     8071964.1    
    351000   298.22026     -1.0256803      0              175.87297      0.997047       8076233.3    
    352000   298.1011      -0.73636368     0              176.09161      0.99957861     8076459.9    
    353000   298.3664      -0.90367581     0              176.08166      0.99767177     8074987.4    
    354000   298.97729     -1.0604811      0              176.28723      0.99722654     8078796.1    
    355000   298.11849     -0.89965133     0              175.93863      0.99496659     8077623.5    
    356000   298.02546     -1.0379473      0              175.74515      0.99377916     8075857.6    
    357000   298.20739     -0.72663927     0              176.16438      1.0000409      8073206.3    
    358000   298.162       -0.78383101     0              176.08026      1.0009057      8071673.6    
    359000   298.43982     -1.4567033      0              175.57219      0.997226       8069857.7    
    360000   297.20268     -0.62855278     0              175.66649      1.0489764      8066456.4    
    361000   297.95881     -1.0188152      0              175.72475      0.99987093     8067029.9    
    362000   298.05369     -0.78623998     0              176.01361      1.0031794      8067655.7    
    363000   298.07234     -0.58587936     0              176.22503      1.0062332      8066381.5    
    364000   298.23024     -0.86260946     0              176.04196      1.0048502      8067825.8    
    365000   298.46901     -1.3200266      0              175.72618      1.0083832      8069004.8    
    366000   298.06002     -0.65686853     0              176.14673      1.0064104      8069597.5    
    367000   298.27287     -0.49368701     0              176.43617      1.0339411      8072054.4    
    368000   298.29417     -0.88282783     0              176.05967      1.0025937      8071160.9    
    369000   298.05647     -0.75273327     0              176.04876      1.0013722      8067814.2    
    370000   298.09374     -1.1085926      0              175.71501      0.99484987     8064240.9    
    371000   298.77616     -1.4297348      0              175.79866      0.9935537      8069166.9    
    372000   298.1122      -1.4347978      0              175.39976      0.99267077     8070213.8    
    373000   298.26336     -1.0509395      0              175.87328      0.9962727      8067845.1    
    374000   298.30416     -1.0871973      0              175.86122      0.99673344     8067666.8    
    375000   298.06742     -1.1437482      0              175.66424      1.0027865      8066000      
    376000   298.33652     -1.1108891      0              175.85672      0.99589671     8064663.3    
    377000   298.02259     -0.82548986     0              175.95591      0.99458637     8066147.8    
    378000   298.18298     -1.1516077      0              175.72493      0.99078152     8065682.2    
    379000   298.18658     -1.4674677      0              175.41121      0.99398799     8065250.8    
    380000   298.07742     -0.72238252     0              176.09154      0.99582153     8061406.9    
    381000   298.1293      -0.86791857     0              175.97678      0.99521278     8060004.6    
    382000   298.12687     -0.76412497     0              176.07913      0.99746729     8060360.4    
    383000   298.0386      -1.0273942      0              175.7635       0.99399303     8057843.7    
    384000   298.1666      -0.71024136     0              176.15658      0.9973817      8056860.1    
    385000   297.94517     -0.90645109     0              175.82902      0.99366956     8057958.4    
    386000   298.08392     -0.60850325     0              176.20927      0.99632433     8063863.9    
    387000   298.1885      -0.72833085     0              176.15148      0.99497206     8062993      
    388000   298.31374     -0.93255023     0              176.02155      0.99536373     8061451.4    
    389000   298.04239     -0.62810716     0              176.16503      0.99844712     8059791.4    
    390000   298.4389      -0.97326924     0              176.05508      0.99929088     8061911      
    391000   298.07084     -0.74945724     0              176.06056      0.99712978     8063295.5    
    392000   298.1211      -0.94654102     0              175.89329      1.0068456      8063100.1    
    393000   298.33224     -0.93077819     0              176.0343       0.99353527     8066322      
    394000   298.30606     -0.95403194     0              175.99551      0.99319458     8065860.6    
    395000   298.124       -0.95436406     0              175.88719      1.0015814      8064465.6    
    396000   298.22723     -0.88859607     0              176.01419      1.0054128      8065274.6    
    397000   298.43101     -1.4097144      0              175.61395      1.0057001      8065461.2    
    398000   298.2239      -0.97352649     0              175.92729      0.99937556     8069602.4    
    399000   298.20445     -0.94933891     0              175.93993      1.0029441      8066562.9    
    400000   298.25159     -1.2306344      0              175.6866       1.007124       8068792.1    
    401000   298.01769     -1.0404608      0              175.73803      1.0033048      8065618.6    
    402000   298.29213     -1.050257       0              175.89103      1.0037201      8065889.4    
    403000   298.31467     -0.87484792     0              176.0798       1.0066216      8064924.2    
    404000   298.19999     -0.65348188     0              176.23315      1.0029075      8066024.1    
    405000   298.10218     -0.77342468     0              176.05518      0.99973194     8069411      
    406000   298.4445      -1.6534903      0              175.37818      1.0037705      8066631.6    
    407000   298.32197     -1.5661198      0              175.39286      1.0026077      8066358.9    
    408000   298.19856     -1.1898621      0              175.69592      0.99921602     8068916.8    
    409000   298.22869     -0.66860772     0              176.23505      1.0168062      8069347.2    
    410000   298.42539     -1.7132442      0              175.30709      1.0022198      8068523.6    
    411000   297.98609     -0.72370073     0              176.03605      0.99380311     8070066.8    
    412000   298.16679     -0.70137242     0              176.16556      0.9956762      8069052.9    
    413000   298.13738     -0.84733012     0              176.00216      0.99499582     8066634.3    
    414000   298.26387     -0.82735478     0              176.09716      0.99622599     8068692.8    
    415000   298.19826     -0.87726205     0              176.00834      0.99454094     8066602.6    
    416000   298.03953     -0.71992374     0              176.07152      0.99545448     8064962.8    
    417000   298.62763     -1.5539686      0              175.58633      0.99063458     8062759.4    
    418000   298.07726     -0.7521188      0              176.06171      0.99452629     8062128.8    
    419000   298.26358     -0.80092075     0              176.12343      0.99578364     8060819.1    
    420000   298.19856     -0.66360603     0              176.22217      0.99853666     8061054.5    
    421000   298.50523     -0.93840761     0              176.12929      1.0043253      8064749.6    
    422000   298.26207     -0.96502873     0              175.95842      0.99774422     8066860.9    
    423000   298.07573     -0.95919533     0              175.85372      0.99795616     8064966.1    
    424000   298.46502     -1.0885328      0              175.9553       1.0056712      8065147.9    
    425000   298.13563     -1.0348927      0              175.81356      1.0006034      8062653.6    
    426000   298.31071     -1.4324498      0              175.51985      0.99489874     8061540.4    
    427000   298.12022     -1.5133865      0              175.32593      0.99427198     8063620.9    
    428000   297.95864     -1.1732046      0              175.57026      1.0117292      8060397.4    
    429000   298.44595     -1.0203664      0              176.01216      0.99906275     8059936      
    430000   297.97762     -0.79775292     0              175.95697      0.99809014     8067039.7    
    431000   298.54163     -0.84240014     0              176.24688      1.0091168      8069218.9    
    432000   298.05311     -0.64745221     0              176.15205      0.99653066     8068745.7    
    433000   298.28577     -1.3273388      0              175.61017      0.99184173     8071249.4    
    434000   298.16878     -0.69723409     0              176.17088      0.99462778     8072399.6    
    435000   298.18769     -0.81276363     0              176.06657      0.9932469      8070712      
    436000   297.91613     -1.2146871      0              175.50356      0.98842757     8069072.4    
    437000   298.12829     -1.2226577      0              175.62144      0.99415939     8067733.4    
    438000   298.14512     -0.63676058     0              176.21732      0.99835793     8069705.1    
    439000   298.13556     -0.86002556     0              175.98838      0.99531992     8071551.2    
    440000   298.01625     -1.2951767      0              175.48246      0.99118991     8070773.9    
    441000   298.12588     -1.134823       0              175.70785      0.99000238     8070905.8    
    442000   298.07134     -1.2701444      0              175.54017      0.98904006     8073613.2    
    443000   298.37458     -0.92529808     0              176.06489      0.9973258      8075230.1    
    444000   298.22572     -0.88140186     0              176.02049      0.99839097     8079737.7    
    445000   298.00862     -0.7735349      0              175.99958      1.0020296      8080681.3    
    446000   298.14935     -0.88230672     0              175.97428      1.0108409      8078530.6    
    447000   298.01535     -0.64502277     0              176.13208      1.0044527      8078203.9    
    448000   298.28913     -1.0021022      0              175.9374       0.99813624     8075988.1    
    449000   298.05061     -1.486672       0              175.31135      0.99932715     8072549.1    
    450000   298.58174     -1.4763725      0              175.6367       0.99071897     8071202.1    
    451000   297.91182     -1.0287724      0              175.68692      0.9917291      8068777      
    452000   298.11508     -0.9391526      0              175.89711      0.99647458     8070325.6    
    453000   297.98921     -0.7592288      0              176.00237      1.0141563      8068788.8    
    454000   298.10288     -0.61378344     0              176.21524      0.9987899      8071772.8    
    455000   298.45282     -1.0144569      0              176.02214      0.99467039     8071009.1    
    456000   298.27036     -1.3397869      0              175.58858      0.9917866      8076396.3    
    457000   297.93743     -0.82747939     0              175.9034       0.99158288     8074978.2    
    458000   298.19229     -0.67252886     0              176.20953      0.99457741     8073231.5    
    459000   297.38608     -0.50843042     0              175.8954       1.0274716      8073686.9    
    460000   298.1968      -0.77113882     0              176.1136       0.9952329      8073571      
    461000   298.11002     -0.71896446     0              176.11429      0.99734022     8071449.8    
    462000   298.10977     -0.84150626     0              175.99161      0.99536849     8071210.3    
    463000   298.28155     -0.86028651     0              176.07472      0.99519878     8069331.5    
    464000   297.93532     -1.0381173      0              175.69151      1.0064517      8070238.4    
    465000   298.22843     -1.462398       0              175.4411       0.99995552     8068475.1    
    466000   297.96316     -0.97658974     0              175.76956      0.99528628     8072817.2    
    467000   298.15998     -0.7034064      0              176.15949      1.0028854      8071313.7    
    468000   298.00286     -0.69960069     0              176.0701       1.0050635      8072136.5    
    469000   298.22293     -0.89992149     0              176.00031      1.0036898      8072117.9    
    470000   298.15047     -0.95561955     0              175.90164      1.0014542      8071400.1    
    471000   298.34684     -1.0914692      0              175.88227      1.0007823      8069579.1    
    472000   298.07929     -0.9528448      0              175.86218      0.99414956     8067991.2    
    473000   298.36936     -1.3620785      0              175.62502      0.99166328     8068045.6    
    474000   297.89657     -1.1255868      0              175.58106      1.0035178      8065271.1    
    475000   298.03376     -0.73695629     0              176.05107      0.99548926     8066630.9    
    476000   298.00485     -0.79433209     0              175.97655      0.99594694     8066261.1    
    477000   298.10712     -0.59882556     0              176.23271      0.99943917     8067912.2    
    478000   298.14472     -0.64684448     0              176.207        0.99746944     8069469.1    
    479000   298.19394     -0.87182174     0              176.01122      0.99281013     8068958.9    
    480000   298.14261     -1.2997017      0              175.55289      0.99775341     8066264.3    
    481000   298.17608     -0.92361229     0              175.94883      0.99136829     8063200.9    
    482000   298.28677     -1.7929472      0              175.14515      0.99861406     8063599      
    483000   298.22123     -1.2470285      0              175.6522       0.99552668     8063075.3    
    484000   298.22098     -0.80771222     0              176.09137      1.0006024      8062266.9    
    485000   298.10944     -1.1773755      0              175.65554      1.0205636      8063022.3    
    486000   297.93746     -0.76072423     0              175.97018      1.0166334      8061265.5    
    487000   298.06961     -0.89251432     0              175.91678      1.0063787      8062468.7    
    488000   298.19344     -0.869662       0              176.01308      0.99835479     8061862.3    
    489000   298.06682     -0.87833185     0              175.9293       0.99392162     8061067.2    
    490000   297.65924     -1.0945199      0              175.47135      1.0237834      8059262.5    
    491000   298.31007     -1.1280837      0              175.82384      0.99694579     8058836.2    
    492000   298.05847     -0.67088708     0              176.1318       0.99547843     8061845.9    
    493000   298.17675     -0.65423076     0              176.21861      0.9973358      8062019.6    
    494000   296.84806     -0.16558663     0              175.9191       1.0564802      8062433.2    
    495000   298.1109      -0.96452705     0              175.86926      0.99790921     8066422.7    
    496000   297.94274     -0.78993747     0              175.94409      1.0005978      8068520.4    
    497000   298.29621     -0.77510021     0              176.1686       0.99962586     8067786      
    498000   298.1834      -0.69650298     0              176.18029      0.99774542     8068680.4    
    499000   298.19923     -0.72128655     0              176.16489      0.99721385     8068167.4    
    500000   298.24372     -1.0486744      0              175.86389      0.99795662     8067500.6    
    501000   298.06454     -0.58192786     0              176.22436      1.0030537      8065985.1    
    502000   298.06946     -1.0338833      0              175.77532      0.99714205     8063706.7    
    503000   297.57477     -0.74289497     0              175.77286      1.034015       8060378.4    
    504000   298.15758     -0.9818407      0              175.87963      0.99401466     8064548.3    
    505000   298.18428     -0.72178691     0              176.15552      0.99624941     8069486.3    
    506000   298.2299      -0.96967398     0              175.9347       0.9959292      8068579.1    
    507000   298.10918     -0.83969057     0              175.99307      0.99697299     8067092.8    
    508000   298.24188     -1.1329634      0              175.77852      0.99700453     8069593.3    
    509000   298.08402     -0.78607586     0              176.03176      0.99819651     8070580.2    
    510000   298.45397     -0.94886416     0              176.08842      0.99527538     8073874.8    
    511000   298.4544      -1.2233267      0              175.81421      0.99111231     8074153.8    
    512000   297.93902     -0.83680279     0              175.89502      0.99133138     8073276.2    
    513000   298.20214     -0.8828387      0              176.00506      0.99228311     8070910.5    
    514000   298.1283      -0.94962088     0              175.89448      1.0139009      8071870      
    515000   298.47933     -1.5872792      0              175.46505      1.0093283      8071601.5    
    516000   298.29367     -0.96324354     0              175.97895      1.0013994      8072913.1    
    517000   298.27006     -0.93470085     0              175.99349      1.0071357      8071774.8    
    518000   298.2108      -0.80579753     0              176.08724      0.99754493     8070039.7    
    519000   298.11624     -0.81567343     0              176.02127      1.0025171      8067470.2    
    520000   298.05094     -0.69487341     0              176.10334      0.99489611     8070391.3    
    521000   298.0681      -0.7563403      0              176.05205      0.99298445     8070602.1    
    522000   297.83539     -0.73503042     0              175.93533      0.99164052     8072746.7    
    523000   297.97791     -0.64003756     0              176.11486      0.99364799     8070165.8    
    524000   298.2912      -0.80463738     0              176.1361       1.0189377      8071375      
    525000   298.05865     -0.64621559     0              176.15657      0.99348178     8071905.8    
    526000   298.10914     -0.70902124     0              176.12371      0.99332364     8069881.3    
    527000   298.28159     -1.0052039      0              175.92983      0.9939455      8068367.9    
    528000   298.10859     -0.59303295     0              176.23938      0.9971499      8068025.4    
    529000   298.27513     -0.8121161      0              176.11908      0.99738373     8067765.9    
    530000   298.12148     -1.1624119      0              175.67765      1.0061735      8067311.9    
    531000   298.08921     -0.64225563     0              176.17866      1.0019406      8067182.9    
    532000   298.10445     -1.2924131      0              175.53754      1.0045051      8066584.6    
    533000   298.18215     -0.66712543     0              176.20892      0.99328523     8065133.7    
    534000   297.67293     -0.73992371     0              175.83406      1.0208422      8065006.1    
    535000   298.12982     -0.7306927      0              176.11431      0.99482617     8067301.3    
    536000   298.02225     -0.89246907     0              175.88873      0.99128012     8063819.6    
    537000   298.206       -1.0186751      0              175.87152      0.98940707     8063194.8    
    538000   297.99051     -0.6891875      0              176.07318      1.009572       8068195      
    539000   298.11077     -0.59552631     0              176.23818      0.99729769     8068078.1    
    540000   298.19275     -0.48206524     0              176.40027      0.99594401     8066736      
    541000   298.09667     -1.4369513      0              175.38839      1.0022569      8064049.5    
    542000   298.05794     -0.59238228     0              176.20998      0.99399256     8066926.2    
    543000   298.10732     -0.84950784     0              175.98215      0.99170734     8067087.3    
    544000   298.19114     -1.2922246      0              175.58915      1.0093875      8063716.6    
    545000   297.9747      -0.90900426     0              175.84399      1.0197509      8065752.6    
    546000   298.05402     -0.54610606     0              176.25394      0.99528468     8072835.3    
    547000   298.21059     -0.72316646     0              176.16975      1.0029592      8070825.6    
    548000   298.45105     -1.0772599      0              175.95829      0.99298276     8072220.8    
    549000   298.1379      -0.88449911     0              175.9653       1.0090423      8071725.5    
    550000   298.09973     -0.44458651     0              176.38257      1.0008768      8072098.7    
    551000   298.1165      -0.72026062     0              176.11685      0.99828525     8073039.4    
    552000   298.16976     -0.48596749     0              176.38273      1.0023845      8070956.7    
    553000   298.21326     -0.60696222     0              176.28754      1.0012495      8072190.3    
    554000   297.84049     -0.63209503     0              176.04128      0.99989993     8074371.3    
    555000   298.14052     -0.72899673     0              176.12236      1.0043473      8075592.6    
    556000   298.09408     -0.6551573      0              176.16865      1.0014172      8074904.3    
    557000   298.12712     -0.89347403     0              175.94993      1.0108714      8071383.5    
    558000   298.13627     -0.69902727     0              176.1498       0.99978762     8071349.5    
    559000   298.14036     -0.94330928     0              175.90795      1.0045776      8070758.2    
    560000   298.11372     -0.68993175     0              176.14552      0.99799016     8071501.8    
    561000   298.77695     -0.95767137     0              176.2712       1.0003215      8078379.8    
    562000   298.33635     -0.5675817      0              176.39993      1.032961       8080066.1    
    563000   298.13314     -0.56623879     0              176.28073      0.99386613     8090376.9    
    564000   298.36753     -1.094918       0              175.89109      0.99021574     8090073.4    
    565000   298.15646     -0.87724736     0              175.98356      0.98993619     8091329.1    
    566000   298.21775     -0.7447824      0              176.15238      0.99377369     8088338.9    
    567000   298.20726     -0.85508509     0              176.03585      0.99119639     8088246.8    
    568000   298.31889     -1.009673       0              175.94748      0.99272633     8086416.9    
    569000   298.0646      -0.5012988      0              176.30502      0.99328964     8084765      
    570000   298.08999     -0.86217314     0              175.9592       0.9877477      8082691.2    
    571000   298.09725     -0.78425118     0              176.04143      1.0033569      8078711.2    
    572000   297.99223     -1.0530719      0              175.71032      0.99243485     8080547.2    
    573000   298.08566     -0.59093371     0              176.22787      0.99360558     8074166.1    
    574000   298.16758     -0.91454578     0              175.95286      0.98995443     8074699.7    
    575000   298.08283     -0.45092623     0              176.3662       0.9953939      8071103      
    576000   297.99238     -0.59923926     0              176.16424      0.99336905     8070946.1    
    577000   298.23729     -0.6432229      0              176.26553      1.0001881      8070091.7    
    578000   298.10123     -0.42235959     0              176.40569      0.99655452     8068031.4    
    579000   298.15531     -0.30059048     0              176.55954      0.99889686     8067860.4    
    580000   298.51817     -0.95975729     0              176.11561      1.0011111      8069184.7    
    581000   298.3388      -0.57012192     0              176.39885      0.99591578     8071065.4    
    582000   298.10585     -0.44589361     0              176.38489      0.99710567     8071554.8    
    583000   298.08703     -0.77169912     0              176.04792      1.00675        8070996.2    
    584000   298.51288     -0.92863562     0              176.14359      0.99481452     8071928      
    585000   298.19813     -0.70822185     0              176.1773       0.99721997     8074596.3    
    586000   298.54175     -1.2200506      0              175.86931      1.0025959      8074738.5    
    587000   298.74651     -1.324577       0              175.88623      1.0183913      8080143.4    
    588000   298.15067     -0.33965079     0              176.51772      0.99556087     8077115.9    
    589000   298.43642     -0.64403694     0              176.38284      1.005442       8076039.8    
    590000   298.5336      -0.78595722     0              176.29856      0.99994423     8078674.2    
    591000   298.19632     -0.50729442     0              176.37716      0.99635293     8078027.3    
    592000   298.1725      -0.2782088      0              176.59211      0.99698776     8075019.4    
    593000   298.05399     -0.89705343     0              175.90297      0.98908559     8075605.8    
    594000   298.28042     -0.48082829     0              176.45351      0.99579882     8071802      
    595000   297.94161     -0.57536031     0              176.158        0.99258901     8075712.2    
    596000   298.25727     -0.50584688     0              176.41476      0.99665167     8072459.3    
    597000   297.25354      0.2591467      0              176.58436      1.0410575      8071400.5    
    598000   298.20667     -0.49272513     0              176.39786      1.002804       8070591.6    
    599000   298.16372     -0.55827125     0              176.30684      0.99371046     8070172.8    
    600000   298.02041     -0.58347017     0              176.19664      0.99582823     8066136.5    
    601000   298.18759     -0.36479618     0              176.51448      0.99734082     8063831.6    
    602000   298.26125     -0.60589919     0              176.31706      0.99636049     8062418.4    
    603000   298.26433     -0.82993349     0              176.09486      0.99478324     8062764.2    
    604000   298.22952     -0.70761377     0              176.19653      0.99382715     8061146.9    
    605000   298.19339     -0.52675065     0              176.35596      0.9991876      8059903.4    
    606000   298.14471     -0.59540564     0              176.25843      0.99988197     8058218.9    
    607000   298.17661     -0.21200529     0              176.66076      0.99996885     8057544.8    
    608000   298.16038     -0.64324378     0              176.21989      0.99882996     8059452.9    
    609000   298.05016     -0.43746419     0              176.36029      0.99607358     8058191.7    
    610000   298.26093     -0.5601508      0              176.36263      0.99712108     8058126.9    
    611000   298.40161     -0.66249933     0              176.34372      1.0014174      8062067.9    
    612000   298.39092     -0.70334485     0              176.29654      1.0078783      8062083.4    
    613000   298.16294     -0.43118733     0              176.43346      1.0052833      8060549.3    
    614000   298.1448      -0.53752477     0              176.31637      1.0082631      8062472.3    
    615000   298.05097     -0.20744421     0              176.59079      0.9987183      8064896.2    
    616000   297.46276      0.090945511    0              176.54026      1.0308297      8067857.6    
    617000   298.07908     -0.19342207     0              176.62149      0.99876982     8070072.6    
    618000   298.10565     -0.097917517    0              176.73275      0.99988578     8071091.7    
    619000   298.20131     -0.19450016     0              176.69291      0.99870605     8070824.6    
    620000   298.15966     -0.44133698     0              176.42137      0.99477497     8076859.4    
    621000   298.1272      -0.37218742     0              176.47126      0.99566406     8075339.6    
    622000   298.03247     -0.47108971     0              176.31617      0.99454441     8080862.5    
    623000   298.20212     -0.18149927     0              176.70639      0.99798352     8078962      
    624000   297.53971     -0.072966329    0              176.422        1.0239698      8079558.8    
    625000   298.30318     -0.41440109     0              176.53344      1.001976       8079633      
    626000   298.23925     -0.55498907     0              176.35492      1.0076359      8080570.7    
    627000   298.06552     -0.19583862     0              176.61102      0.99711283     8080386.1    
    628000   298.71708     -1.4947764      0              175.69858      0.99697566     8076431.5    
    629000   298.03592     -0.12864952     0              176.66066      0.9977741      8082282.7    
    630000   298.12387     -0.69093312     0              176.15054      0.99862773     8080422.2    
    631000   298.20234     -0.52103708     0              176.36699      1.0053696      8077589.4    
    632000   297.99533     -0.20017219     0              176.56505      0.99721075     8076038.7    
    633000   298.22584     -0.23906409     0              176.66289      0.99794133     8074685.8    
    634000   298.06856     -0.41980229     0              176.38886      0.99444341     8079166      
    635000   298.07867     -0.36420797     0              176.45046      0.99537183     8076543.4    
    636000   298.15797     -0.22531951     0              176.63638      0.99718051     8077883.7    
    637000   298.34875     -0.47160704     0              176.50326      0.9972829      8077687.5    
    638000   298.10211     -0.2449767      0              176.58359      0.99704687     8075426.4    
    639000   298.1136      -0.46105666     0              176.37433      0.99366449     8076596.9    
    640000   298.22016     -0.58811489     0              176.31048      0.9930079      8073652.3    
    641000   298.32482     -1.4298837      0              175.53079      0.99455286     8072554.3    
    642000   298.03822     -0.63330323     0              176.15736      0.99632791     8069096.8    
    643000   298.1226      -0.089417331    0              176.75131      1.0004677      8067942.1    
    644000   298.1754      -0.11750892     0              176.75453      1.0001196      8068436.1    
    645000   297.8304      -0.26064246     0              176.40675      1.0144984      8067223.9    
    646000   298.02188     -0.43237451     0              176.3486       0.99486079     8073558.9    
    647000   297.02705      0.60583024     0              176.79669      1.0599886      8074508.2    
    648000   298.23263     -0.7174744      0              176.18851      0.99268933     8080073.2    
    649000   298.12096     -0.19439979     0              176.64535      0.99765705     8076980.1    
    650000   298.1583      -0.22514279     0              176.63676      0.99771226     8075046.6    
    651000   298.53661     -1.0356453      0              176.05066      0.99668612     8074182.5    
    652000   298.20662     -0.63454925     0              176.25601      0.99514415     8070985.8    
    653000   298.16227     -0.20773404     0              176.65652      0.99858449     8069134.3    
    654000   298.08332     -0.4279559      0              176.38947      1.0041498      8068093.3    
    655000   300.0359      -0.80334568     0              177.17231      1.0250208      8073620.2    
    656000   298.10138     -0.15800994     0              176.67013      0.9983659      8075938.4    
    657000   298.01895     -0.33143843     0              176.4478       0.99514354     8078176.1    
    658000   297.98522     -0.4184992      0              176.34073      1.0205128      8076738.3    
    659000   298.29868     -0.23997097     0              176.7052       0.99799324     8077983.5    
    660000   298.14967     -0.040150429    0              176.81663      0.9997576      8081018      
    661000   298.10722     -0.11157831     0              176.72002      0.99811365     8083538.6    
    662000   298.07444     -0.31080085     0              176.50135      1.0069127      8082474.3    
    663000   298.58539     -0.49161304     0              176.62362      1.0045853      8084247.1    
    664000   298.6828      -0.71478932     0              176.45823      0.99942528     8085682.2    
    665000   297.79295     -0.70669332     0              175.93848      1.0082372      8079483      
    666000   298.14805     -0.46671726     0              176.3891       0.9940801      8079047.2    
    667000   298.20854     -0.21862987     0              176.67307      0.99735724     8081135.6    
    668000   298.34014     -0.38280198     0              176.58696      0.99627739     8078980.4    
    669000   298.1102      -0.2737581      0              176.55961      0.99619782     8079232.4    
    670000   298.46744     -0.6515674      0              176.39371      0.99578261     8078909.8    
    671000   298.42174     -0.58957801     0              176.42859      0.99415259     8080823.5    
    672000   298.04824     -0.18805925     0              176.60856      0.99721418     8079542      
    673000   297.95386     -0.56775406     0              176.17288      0.99205552     8080354.9    
    674000   298.17119     -0.33076198     0              176.53878      0.99558007     8079657.2    
    675000   296.56434      0.79547911     0              176.71187      1.0704529      8083027.5    
    676000   297.95239     -0.46902683     0              176.27073      1.0107474      8082086.7    
    677000   298.44941     -0.95407287     0              176.08051      0.99168267     8082985.5    
    678000   298.10925     -0.77363051     0              176.05917      0.99441251     8077591.2    
    679000   298.13715     -0.7884766      0              176.06087      0.99183365     8074862      
    680000   298.11317     -0.15686978     0              176.67826      0.99824775     8076602      
    681000   298.25263     -0.31885371     0              176.599        0.99671395     8075222.3    
    682000   298.42396     -0.96861871     0              176.05086      0.9918058      8075959.8    
    683000   298.11193     -0.35417409     0              176.48022      0.9963214      8076323.9    
    684000   298.14297     -0.17789435     0              176.67491      0.99827425     8074545.6    
    685000   298.26127     -0.31645764     0              176.60652      0.99684482     8073036.5    
    686000   298.35876     -0.60318604     0              176.37762      0.99538308     8070105.3    
    687000   297.96725     -0.49370159     0              176.25487      0.99442933     8070869.4    
    688000   298.2286      -0.31631611     0              176.58728      0.99710069     8070012.6    
    689000   297.80329     -0.33926067     0              176.31205      1.026303       8071005      
    690000   298.2377      -0.44590802     0              176.46309      0.99740185     8073442.2    
    691000   298.30012     -0.3852673      0              176.56076      1.0033582      8073579.5    
    692000   298.11662     -0.089092164    0              176.74808      1.0000634      8071037      
    693000   298.31638     -0.41011152     0              176.54556      0.99630948     8073249.4    
    694000   298.21311     -0.1556081      0              176.7388       0.99912209     8073748.6    
    695000   298.50062     -0.52709009     0              176.53787      0.99776557     8074236.4    
    696000   298.15302     -0.37278321     0              176.48598      0.995309       8075512      
    697000   298.0102      -0.96463774     0              175.80941      0.99825529     8075502.3    
    698000   298.32075     -0.69418555     0              176.26408      0.99327007     8074278      
    699000   298.09511     -0.4501966      0              176.37422      0.99465133     8070383.6    
    700000   298.78055     -1.0417135      0              176.18929      0.99790253     8075573.6    
    701000   298.02755     -0.14963165     0              176.63471      1.0169369      8073464.3    
    702000   298.27188     -0.52092677     0              176.40835      0.99891208     8072820.8    
    703000   298.13282     -0.081308539    0              176.76547      1.0001862      8071495.5    
    704000   298.16447     -0.13400041     0              176.73156      0.9994718      8071129      
    705000   298.16359     -0.54763089     0              176.31741      0.99382695     8070367.7    
    706000   297.35467     -0.34100263     0              176.0442       1.0342636      8078192.8    
    707000   298.45479     -0.69512459     0              176.34264      0.99489432     8082475.5    
    708000   298.13451     -0.44455276     0              176.40323      0.9958009      8080302.2    
    709000   298.45602     -0.68477825     0              176.35372      0.99189782     8084531.6    
    710000   298.07998     -0.3715717      0              176.44387      0.9939651      8083031.5    
[...]
   1898000   297.88201     -0.37434012     0              176.32367      1.007489     
   1899000   297.87417     -0.36432229     0              176.32903      1.0124749    
   1900000   297.82283     -0.33208362     0              176.33082      1.0085892    
   1901000   297.46678     -0.12979564     0              176.32191      0.99688138   
   1902000   298.86579     -0.95968495     0              176.32188      0.99824235   
   1903000   298.41088     -0.68806062     0              176.32366      1.004974     
   1904000   297.46957     -0.13325557     0              176.3201       0.9968229    
   1905000   298.12072     -0.52125625     0              176.31835      1.0384658    
   1906000   297.55869     -0.17362805     0              176.33259      0.99656288   
   1907000   297.75388     -0.29120368     0              176.3308       0.99559309   
   1908000   298.08797     -0.49651605     0              176.32366      0.99544117   
   1909000   298.00218     -0.44027068     0              176.32902      0.99465919   
   1910000   297.8301      -0.34890567     0              176.31831      0.99458443   
   1911000   298.79179     -0.92649561     0              176.31118      0.99318146   
   1912000   298.10294     -0.51251678     0              176.31654      0.99379799   
   1913000   297.58191     -0.1927392      0              176.32726      0.99632466   
   1914000   297.99961     -0.43872853     0              176.32904      0.99464734   
   1915000   297.59232     -0.19891868     0              176.32725      0.99631073   
   1916000   297.81533     -0.33477829     0              176.32368      0.99504076   
   1917000   297.61048     -0.21325927     0              176.32368      0.99601022   
   1918000   298.03217     -0.46162584     0              176.32546      0.99536467   
   1919000   297.81285     -0.34223059     0              176.31475      0.9951591    
   1920000   297.94239     -0.41192438     0              176.3219       0.99450545   
   1921000   297.92866     -0.40555341     0              176.32013      0.99411176   
   1922000   298.00428     -0.45217731     0              176.31836      0.99510155   
   1923000   297.4094      -0.086855937    0              176.33081      1.0187568    
   1924000   298.32336     -0.63966405     0              176.32015      0.9930697    
   1925000   297.78833     -0.30981501     0              176.33263      0.99632285   
   1926000   297.67395     -0.2437531      0              176.33084      0.99589882   
   1927000   297.57407     -0.18450634     0              176.33084      1.0221121    
   1928000   298.03959     -0.47141458     0              176.32007      1.0194036    
   1929000   297.61921     -0.20950157     0              176.33262      0.99644827   
   1930000   298.49769     -0.73060789     0              176.33261      1.0024663    
   1931000   297.75625     -0.28720387     0              176.33621      0.99693514   
   1932000   298.21507     -0.56828228     0              176.32729      0.99529296   
   1933000   297.48832     -0.14609865     0              176.31838      0.99671502   
   1934000   297.65234     -0.23625602     0              176.32552      0.9959645    
   1935000   297.52341     -0.15443223     0              176.33086      0.99672843   
   1936000   297.87083     -0.35708372     0              176.33429      1.0117889    
   1937000   297.61268     -0.21093595     0              176.32731      0.9960851    
   1938000   298.16086     -0.53613467     0              176.32728      0.99586749   
   1939000   298.25579     -0.59958567     0              176.32014      0.99406025   
   1940000   297.56557     -0.18123747     0              176.32906      0.99641487   
   1941000   297.47698     -0.12154523     0              176.33621      0.99707991   
   1942000   297.85301     -0.35888588     0              176.32192      0.99474221   
   1943000   296.59073      0.39175573     0              176.3238       1.0680141    
   1944000   298.71836     -0.88467366     0              176.30944      1.0033021    
   1945000   297.91216     -0.39218161     0              176.32371      0.99483005   
   1946000   297.97082     -0.43053381     0              176.32016      0.99409085   
   1947000   297.61246     -0.21439293     0              176.32372      0.99603737   
   1948000   298.12204     -0.51666126     0              176.32373      0.99469319   
   1949000   298.92422     -0.98893199     0              176.32729      1.000211     
   1950000   298.07016     -0.49479172     0              176.31482      0.99523407   
   1951000   298.70046     -0.86870037     0              176.3148       1.0008757    
   1952000   297.71959     -0.27078777     0              176.33088      0.99557361   
   1953000   298.53212     -0.75634504     0              176.3273       0.99468816   
   1954000   297.55425     -0.17629421     0              176.3273       0.99648254   
   1955000   297.9886      -0.43214555     0              176.32909      0.99467649   
   1956000   298.39956     -0.68126683     0              176.32375      0.99287218   
   1957000   297.6839      -0.2603032      0              176.32019      0.99557304   
   1958000   298.45369     -0.71513107     0              176.32198      0.9943073    
   1959000   298.73673     -0.87767853     0              176.32733      1.0000204    
   1960000   297.78823     -0.32039037     0              176.32199      0.99506537   
   1961000   297.75387     -0.29823425     0              176.32377      0.99519452   
   1962000   297.86346     -0.35431598     0              176.33269      0.99578507   
   1963000   298.07307     -0.48579386     0              176.32555      0.99706686   
   1964000   297.51188     -0.15468489     0              176.32377      0.99662139   
   1965000   298.06053     -0.47478141     0              176.32912      0.99643782   
   1966000   298.29258     -0.61599412     0              176.32555      0.99641718   
   1967000   297.80909     -0.32383661     0              176.33091      0.99518303   
   1968000   297.36485     -0.067469445    0              176.32377      0.99756392   
   1969000   298.3356      -0.64508592     0              176.32198      0.99450982   
   1970000   298.54478     -0.77452771     0              176.31662      0.99844843   
   1971000   298.1826      -0.55435149     0              176.32196      0.99613436   
   1972000   297.91427     -0.38982372     0              176.32732      0.99465269   
   1973000   297.83348     -0.34011602     0              176.3291       0.99516842   
   1974000   297.83073     -0.34028119     0              176.32731      1.0045791    
   1975000   298.68062     -0.84980319     0              176.32193      0.99620112   
   1976000   297.61604     -0.20937669     0              176.33086      0.99628272   
   1977000   297.76492     -0.29948412     0              176.32907      0.99534732   
   1978000   297.36366     -0.061468472    0              176.32907      0.99766341   
   1979000   298.91328     -0.9842563      0              176.32548      0.99629438   
   1980000   297.40974     -0.083447614    0              176.33442      0.99745949   
   1981000   298.05532     -0.47174561     0              176.32907      0.99436896   
   1982000   297.65061     -0.22988606     0              176.33086      0.99634647   
   1983000   297.4723      -0.13304765     0              176.32193      0.996835     
   1984000   297.75645     -0.292683       0              176.33084      0.99594295   
   1985000   298.33569     -0.63449639     0              176.33262      0.99634713   
   1986000   297.36072     -0.059764613    0              176.32902      1.0192055    
   1987000   297.58684     -0.19744234     0              176.32548      0.99631783   
   1988000   297.99718     -0.43727858     0              176.32905      0.9980014    
   1989000   298.15489     -0.53082814     0              176.32905      0.99722404   
   1990000   298.0494      -0.4718172      0              176.32548      1.0201922    
   1991000   298.15502     -0.52911927     0              176.33083      0.99744532   
   1992000   298.02557     -0.4648666      0              176.3183       1.0081342    
   1993000   298.33484     -0.65547317     0              176.31115      0.99832224   
   1994000   297.89084     -0.36887919     0              176.33437      0.99495364   
   1995000   297.98312     -0.43434666     0              176.32364      0.99412068   
   1996000   298.87858     -0.97445574     0              176.3147       1.0020607    
   1997000   297.97829     -0.42789631     0              176.32722      0.99458309   
   1998000   297.90246     -0.3954002      0              176.31474      0.99415096   
   1999000   297.90239     -0.40248932     0              176.30761      1.0080537    
   2000000   299.07705     -1.0832838      0              176.3236       1.0110199    
   2001000   297.48763     -0.13860298     0              176.32546      0.99684069   
   2002000   297.69806     -0.26699797     0              176.32189      0.99565848   
   2003000   297.61144     -0.21740509     0              176.32011      0.9959381    
   2004000   296.37911      0.52076274     0              176.32728      1.0453577    
   2005000   298.77551     -0.90791438     0              176.3201       1.0007222    
   2006000   298.0033      -0.44985513     0              176.3201       0.99537633   
   2007000   297.59324     -0.20127101     0              176.32545      0.99623694   
   2008000   297.76718     -0.30265399     0              176.32724      0.99602158   
   2009000   298.36765     -0.66421485     0              176.32186      0.99800865   
   2010000   298.55357     -0.78520328     0              176.31116      0.99147134   
   2011000   297.9687      -0.43112472     0              176.31831      0.99460696   
   2012000   297.98892     -0.44670543     0              176.31472      1.0005977    
   2013000   297.4578      -0.12451787     0              176.32186      0.99692663   
   2014000   298.14259     -0.53250569     0              176.32008      0.99503999   
   2015000   297.62852     -0.22756211     0              176.32008      0.99583217   
   2016000   297.9488      -0.41040104     0              176.32722      1.0015787    
   2017000   298.17929     -0.54890592     0              176.32545      0.99653034   
   2018000   297.4251      -0.097968108    0              176.32901      0.99727197   
   2019000   297.71339     -0.27111402     0              176.32687      1.0246187    
   2020000   298.29159     -0.61730746     0              176.32366      0.99436173   
   2021000   297.78475     -0.32023116     0              176.32008      0.99544593   
   2022000   297.55287     -0.18447838     0              176.31829      0.99627999   
   2023000   298.72554     -0.87116434     0              176.32721      1.0008427    
   2024000   298.14279     -0.52190522     0              176.33079      0.99892813   
   2025000   297.48387     -0.12389864     0              176.33794      0.99710016   
   2026000   298.02231     -0.44151269     0              176.33972      0.99694077   
   2027000   297.46831     -0.12364728     0              176.32896      1.0150408    
   2028000   298.38783     -0.67976315     0              176.31829      0.9923995    
   2029000   297.99057     -0.44591163     0              176.31649      0.99610293   
   2030000   297.90347     -0.38174271     0              176.32899      0.99534127   
   2031000   297.93931     -0.39763275     0              176.33436      0.99852614   
   2032000   297.76697     -0.30075264     0              176.32901      0.99536869   
   2033000   298.24914     -0.59211723     0              176.32366      0.99967411   
   2034000   298.23804     -0.58374199     0              176.32546      0.99420858   
   2035000   297.6052      -0.20121048     0              176.3326       0.99630489   
   2036000   298.01197     -0.45326101     0              176.32184      0.99869367   
   2037000   298.42701     -0.69760149     0              176.32369      1.0077394    
   2038000   298.29121     -0.61888077     0              176.32186      1.0156438    
   2039000   297.54238     -0.17285807     0              176.32369      0.99644655   
   2040000   298.21628     -0.57974973     0              176.31654      1.0110589    
   2041000   297.95286     -0.42884381     0              176.31119      0.9940773    
   2042000   298.96999     -1.0286198      0              176.31476      0.99224602   
   2043000   298.03532     -0.47061241     0              176.31834      0.99561952   
   2044000   295.79862      0.8705294      0              176.33271      1.0544864    
   2045000   297.48563     -0.13558835     0              176.32729      0.99684592   
   2046000   297.66906     -0.25153859     0              176.32015      0.99561337   
   2047000   297.58978     -0.19558052     0              176.32908      0.99640136   
   2048000   299.87484     -1.5564055      0              176.32371      0.99592186   
   2049000   297.6892      -0.26525453     0              176.31838      0.99558537   
   2050000   298.10002     -0.4982317      0              176.3291       0.99606715   
   2051000   298.5491      -0.76996865     0              176.32374      1.0015646    
   2052000   297.86488     -0.36945851     0              176.31839      1.0114176    
   2053000   297.72694     -0.27694403     0              176.32908      0.99612919   
   2054000   297.4563      -0.10926902     0              176.33621      0.99719685   
   2055000   297.94923     -0.40703235     0              176.33085      0.99749324   
   2056000   297.44825     -0.10986097     0              176.33085      0.99716512   
   2057000   298.04628     -0.46817797     0              176.32727      0.99478616   
   2058000   298.933       -1.0031043      0              176.31833      1.0078488    
   2059000   298.32329     -0.64858017     0              176.31119      0.99295555   
   2060000   298.1477      -0.53371634     0              176.3219       1.003754     
   2061000   298.7242      -0.87212062     0              176.32546      0.9945386    
   2062000   298.06848     -0.48137392     0              176.32725      0.99410898   
   2063000   298.55274     -0.77399881     0              176.32187      1.0059693    
   2064000   297.46017     -0.12230917     0              176.32547      0.99698215   
   2065000   298.07996     -0.489963       0              176.32546      0.9941112    
   2066000   297.75745     -0.30043532     0              176.32368      0.99591771   
   2067000   297.58983     -0.19388876     0              176.33081      0.99635723   
   2068000   297.84821     -0.34715339     0              176.33081      0.99683957   
   2069000   297.44096     -0.10734679     0              176.32904      0.99715548   
   2070000   298.21351     -0.57811428     0              176.31653      1.004612     
   2071000   298.45008     -0.70597519     0              176.329        1.0005264    
   2072000   297.61034     -0.21496345     0              176.32189      0.99606273   
   2073000   298.43438     -0.70020346     0              176.32546      0.9997045    
   2074000   298.04377     -0.47205281     0              176.32191      0.99649053   
   2075000   297.76407     -0.30435924     0              176.32369      0.99545773   
   2076000   297.49116     -0.14068098     0              176.32548      0.99677723   
   2077000   297.19546      0.036520785    0              176.32728      1.021837     
   2078000   297.67908     -0.2521446      0              176.32549      0.99584292   
   2079000   298.29808     -0.6211108      0              176.3237       0.99816801   
   2080000   297.94993     -0.40567441     0              176.33262      0.99740814   
   2081000   297.55969     -0.17954749     0              176.32727      0.99654935   
   2082000   297.42158     -0.099418594    0              176.32547      0.99722414   
   2083000   298.28389     -0.60913824     0              176.32725      0.99347299   
   2084000   297.84583     -0.34392915     0              176.33262      0.99504456   
   2085000   299.30575     -1.2259933      0              176.31655      0.99048958   
   2086000   298.34697     -0.65011719     0              176.3237       0.99868537   
   2087000   297.6901      -0.26405795     0              176.32011      0.99554208   
   2088000   298.23335     -0.5827259      0              176.32369      0.99493531   
   2089000   297.83766     -0.34979994     0              176.3219       0.99547483   
   2090000   297.60055     -0.20379498     0              176.32726      0.99616635   
   2091000   298.30495     -0.61985738     0              176.32903      1.0014478    
   2092000   297.95586     -0.4092057      0              176.33261      0.99424727   
   2093000   298.11894     -0.51665337     0              176.3219       0.99509271   
   2094000   298.4103      -0.69304636     0              176.31833      0.99517674   
   2095000   298.07741     -0.48843664     0              176.32548      0.99465523   
   2096000   297.87295     -0.36359529     0              176.32904      0.9962278    
   2097000   297.49481     -0.1392833      0              176.32904      0.99687863   
   2098000   297.92345     -0.38997409     0              176.33261      0.99855325   
   2099000   298.18172     -0.55571054     0              176.32008      1.0045569    
   2100000   298.28534     -0.61176718     0              176.32549      1.003823     
   2101000   298.16402     -0.53801486     0              176.32728      0.99438868   
   2102000   297.75812     -0.2972573      0              176.32726      0.99551621   
   2103000   298.61233     -0.81109011     0              176.32013      0.99446126   
   2104000   297.84116     -0.35006293     0              176.32371      0.99468415   
   2105000   298.0437      -0.46484693     0              176.32907      0.99545557   
   2106000   298.07357     -0.47898093     0              176.33266      1.0000337    
   2107000   297.67461     -0.24410679     0              176.33087      0.99589776   
   2108000   298.27378     -0.6084378      0              176.32196      0.99296774   
   2109000   298.93073     -0.99098829     0              176.3291       0.99589039   
   2110000   298.79675     -0.91507196     0              176.32554      0.99731175   
   2111000   298.03942     -0.47833064     0              176.31305      0.99363963   
   2111653   299.51244     -1.3556632      0              176.30948      0.99144196   
Loop time of 4.96627 on 1 procs for 1000000 steps with 200 atoms

Performance: 17397.356 ns/day, 0.001 hours/ns, 201358.293 timesteps/s, 40.272 Matom-step/s
94.9% CPU use with 1 MPI tasks x no OpenMP threads

MPI task timing breakdown:
Section |  min time  |  avg time  |  max time  |%varavg| %total
---------------------------------------------------------------
Pair    | 0.73541    | 0.73541    | 0.73541    |   0.0 | 14.81
Bond    | 0.086131   | 0.086131   | 0.086131   |   0.0 |  1.73
Neigh   | 0.76694    | 0.76694    | 0.76694    |   0.0 | 15.44
Comm    | 0.65453    | 0.65453    | 0.65453    |   0.0 | 13.18
Output  | 0.31274    | 0.31274    | 0.31274    |   0.0 |  6.30
Modify  | 1.6293     | 1.6293     | 1.6293     |   0.0 | 32.81
Other   |            | 0.7812     |            |       | 15.73

Nlocal:            200 ave         200 max         200 min
Histogram: 1 0 0 0 0 0 0 0 0 0
Nghost:             88 ave          88 max          88 min
Histogram: 1 0 0 0 0 0 0 0 0 0
Neighs:             32 ave          32 max          32 min
Histogram: 1 0 0 0 0 0 0 0 0 0

Total # of neighbors = 32
Ave neighs/atom = 0.16
Ave special neighs/atom = 0
Neighbor list builds = 14798
Dangerous builds = 0
unfix 7a

Total wall time: 0:00:29
