LAMMPS Description

2 atoms
0 bonds
0 angles
0 dihedrals
0 impropers

2 atom types
0 bond types
0 angle types
0 dihedral types
0 improper types

-0.73 6.60 xlo xhi
-1.47 5.87 ylo yhi
-1.47 5.87 zlo zhi

Masses

1 39.098 # K+ Potassium Ion K 199
2 79.904 # Br- Bromide Ion Br 208

Pair Coeffs

1 0.0003 4.9346
2 0.0900 4.6238

Atoms

1 1 2 -1.0000 -1.276 1.809 2.596
2 1 1 1.0000 7.146 2.595 1.808

