LAMMPS Description

8 atoms

1 atom types

0.0000 5.9738 xlo xhi
0.0000 5.9738 ylo yhi
0.0000 5.9738 zlo zhi
0.0000 0.0000 0.0000 xy xz yz

Masses

1 28.086

Atoms

1 1 0.000 0.000 0.000
2 1 0.000 2.987 2.987
3 1 1.493 1.493 1.493
4 1 1.493 4.480 4.480
5 1 2.987 0.000 2.987
6 1 2.987 2.987 0.000
7 1 4.480 1.493 4.480
8 1 4.480 4.480 1.493

