LAMMPS Description

1000 atoms
0 bonds
0 angles
0 dihedrals
0 impropers

1 atom types
0 bond types
0 angle types
0 dihedral types
0 improper types

-4.65 46.35 xlo xhi
-4.80 46.21 ylo yhi
-4.06 46.94 zlo zhi

Masses

1 39.948 # Argon Atom Ar 211

Pair Coeffs

1 0.2340 3.4010

Atoms

1 1 1 0.0000 45.267 24.355 6.867
2 2 1 0.0000 13.463 22.997 21.764
3 3 1 0.0000 40.611 -1.194 19.457
4 4 1 0.0000 28.138 43.036 -2.490
5 5 1 0.0000 34.796 39.538 39.329
6 6 1 0.0000 20.333 30.432 29.053
7 7 1 0.0000 24.735 10.734 42.757
8 8 1 0.0000 25.882 27.441 12.888
9 9 1 0.0000 4.293 5.239 4.553
10 10 1 0.0000 10.471 41.764 35.643
11 11 1 0.0000 6.605 6.591 25.703
12 12 1 0.0000 33.772 21.117 21.619
13 13 1 0.0000 24.522 8.859 25.651
14 14 1 0.0000 38.635 13.395 21.573
15 15 1 0.0000 33.299 13.328 -2.967
16 16 1 0.0000 47.220 18.228 31.485
17 17 1 0.0000 -0.831 10.601 39.926
18 18 1 0.0000 -6.455 34.971 15.161
19 19 1 0.0000 42.166 6.684 4.976
20 20 1 0.0000 9.513 13.005 13.910
21 21 1 0.0000 44.213 40.159 22.023
22 22 1 0.0000 17.156 2.461 -3.435
23 23 1 0.0000 2.325 19.708 -1.667
24 24 1 0.0000 32.465 26.261 8.998
25 25 1 0.0000 24.691 30.747 21.618
26 26 1 0.0000 11.901 41.649 15.466
27 27 1 0.0000 16.172 20.743 -4.574
28 28 1 0.0000 15.492 34.791 4.068
29 29 1 0.0000 22.438 44.141 32.001
30 30 1 0.0000 43.364 44.188 45.916
31 31 1 0.0000 28.757 21.416 30.688
32 32 1 0.0000 18.318 8.257 -0.278
33 33 1 0.0000 46.165 31.749 38.263
34 34 1 0.0000 9.140 -3.504 8.063
35 35 1 0.0000 14.364 25.599 34.287
36 36 1 0.0000 34.557 33.485 23.098
37 37 1 0.0000 1.152 37.006 -2.697
38 38 1 0.0000 30.440 11.434 44.154
39 39 1 0.0000 20.313 43.940 6.918
40 40 1 0.0000 28.566 30.674 9.379
41 41 1 0.0000 38.029 4.509 28.529
42 42 1 0.0000 -1.487 32.030 5.736
43 43 1 0.0000 -2.853 -2.867 2.456
44 44 1 0.0000 -3.565 32.336 23.611
45 45 1 0.0000 7.331 27.719 22.316
46 46 1 0.0000 -2.536 33.006 25.607
47 47 1 0.0000 2.849 43.975 27.580
48 48 1 0.0000 8.254 7.649 42.700
49 49 1 0.0000 1.116 30.469 43.239
50 50 1 0.0000 19.900 0.003 10.915
51 51 1 0.0000 36.909 6.833 3.406
52 52 1 0.0000 18.396 14.153 0.369
53 53 1 0.0000 23.129 28.747 48.493
54 54 1 0.0000 10.039 25.456 44.162
55 55 1 0.0000 5.142 10.794 35.971
56 56 1 0.0000 42.322 -2.623 35.910
57 57 1 0.0000 7.052 20.964 6.158
58 58 1 0.0000 40.929 12.046 41.086
59 59 1 0.0000 28.577 -1.385 33.390
60 60 1 0.0000 42.901 30.946 10.010
61 61 1 0.0000 -2.076 41.106 27.225
62 62 1 0.0000 32.519 47.052 6.839
63 63 1 0.0000 22.278 25.986 42.448
64 64 1 0.0000 -2.407 3.751 17.795
65 65 1 0.0000 -7.846 42.692 7.053
66 66 1 0.0000 33.190 26.455 45.191
67 67 1 0.0000 14.440 39.615 42.758
68 68 1 0.0000 21.193 36.554 -1.406
69 69 1 0.0000 18.026 10.266 22.149
70 70 1 0.0000 14.757 4.545 20.895
71 71 1 0.0000 22.202 33.984 22.175
72 72 1 0.0000 2.452 32.275 32.199
73 73 1 0.0000 2.144 32.085 -2.866
74 74 1 0.0000 1.461 39.279 -4.532
75 75 1 0.0000 8.231 10.716 27.567
76 76 1 0.0000 -5.254 47.440 -2.644
77 77 1 0.0000 32.790 14.684 13.031
78 78 1 0.0000 11.057 30.102 9.514
79 79 1 0.0000 4.016 31.019 44.137
80 80 1 0.0000 31.397 43.592 21.225
81 81 1 0.0000 35.463 42.668 28.345
82 82 1 0.0000 4.770 37.241 7.038
83 83 1 0.0000 1.105 45.223 7.345
84 84 1 0.0000 10.323 -4.776 46.377
85 85 1 0.0000 22.957 -4.431 10.611
86 86 1 0.0000 21.154 32.969 36.027
87 87 1 0.0000 41.242 -6.528 32.546
88 88 1 0.0000 21.482 6.349 7.015
89 89 1 0.0000 2.045 -8.031 0.978
90 90 1 0.0000 3.176 -1.647 43.396
91 91 1 0.0000 22.783 45.351 24.536
92 92 1 0.0000 23.104 34.597 41.635
93 93 1 0.0000 13.561 8.672 31.469
94 94 1 0.0000 2.235 18.534 38.858
95 95 1 0.0000 41.069 33.799 -2.458
96 96 1 0.0000 47.993 29.401 13.068
97 97 1 0.0000 36.153 -1.383 9.321
98 98 1 0.0000 45.121 -1.490 29.312
99 99 1 0.0000 -3.031 8.596 5.188
100 100 1 0.0000 10.089 6.866 7.904
101 101 1 0.0000 46.004 5.314 13.676
102 102 1 0.0000 33.936 44.452 34.754
103 103 1 0.0000 7.992 8.562 4.460
104 104 1 0.0000 33.796 14.553 2.081
105 105 1 0.0000 39.063 37.208 29.156
106 106 1 0.0000 4.452 28.843 37.472
107 107 1 0.0000 7.118 18.630 17.289
108 108 1 0.0000 30.692 17.280 37.669
109 109 1 0.0000 26.236 18.215 0.906
110 110 1 0.0000 40.337 13.396 4.393
111 111 1 0.0000 10.241 -3.017 12.071
112 112 1 0.0000 23.166 39.058 -2.256
113 113 1 0.0000 15.081 -5.995 15.251
114 114 1 0.0000 -3.020 11.501 46.265
115 115 1 0.0000 42.072 23.086 37.764
116 116 1 0.0000 41.245 12.198 26.459
117 117 1 0.0000 13.149 28.460 20.120
118 118 1 0.0000 23.623 14.541 9.257
119 119 1 0.0000 14.682 -4.408 50.688
120 120 1 0.0000 14.529 44.768 44.704
121 121 1 0.0000 17.804 8.334 41.424
122 122 1 0.0000 45.442 15.069 24.667
123 123 1 0.0000 4.219 -3.306 18.364
124 124 1 0.0000 0.700 38.585 30.067
125 125 1 0.0000 32.128 28.870 41.654
126 126 1 0.0000 43.325 36.775 13.439
127 127 1 0.0000 45.122 -1.407 -1.697
128 128 1 0.0000 49.189 9.236 11.122
129 129 1 0.0000 5.624 34.609 9.518
130 130 1 0.0000 16.762 -2.876 30.850
131 131 1 0.0000 -0.125 45.153 10.235
132 132 1 0.0000 9.113 35.296 29.584
133 133 1 0.0000 26.121 3.545 46.779
134 134 1 0.0000 15.356 20.800 25.219
135 135 1 0.0000 19.281 12.758 31.164
136 136 1 0.0000 -4.411 13.311 40.897
137 137 1 0.0000 -4.838 12.407 44.841
138 138 1 0.0000 -2.908 7.788 43.516
139 139 1 0.0000 6.775 42.536 -3.723
140 140 1 0.0000 2.430 10.850 43.541
141 141 1 0.0000 43.116 12.850 10.239
142 142 1 0.0000 10.632 -7.223 7.123
143 143 1 0.0000 40.110 36.674 13.682
144 144 1 0.0000 35.868 21.131 24.242
145 145 1 0.0000 15.279 1.507 30.202
146 146 1 0.0000 -6.836 1.148 29.766
147 147 1 0.0000 26.600 34.733 20.115
148 148 1 0.0000 32.733 4.106 25.832
149 149 1 0.0000 16.802 17.183 12.041
150 150 1 0.0000 -1.952 -4.174 31.303
151 151 1 0.0000 11.608 44.461 -0.394
152 152 1 0.0000 38.489 -5.689 48.922
153 153 1 0.0000 2.918 41.556 16.493
154 154 1 0.0000 40.816 38.017 44.961
155 155 1 0.0000 14.704 39.763 16.243
156 156 1 0.0000 17.370 25.028 1.942
157 157 1 0.0000 30.181 44.847 9.693
158 158 1 0.0000 1.589 12.259 -5.892
159 159 1 0.0000 2.796 46.890 33.573
160 160 1 0.0000 43.848 -1.079 31.826
161 161 1 0.0000 8.616 23.942 35.085
162 162 1 0.0000 37.205 0.076 43.532
163 163 1 0.0000 21.381 -5.597 9.699
164 164 1 0.0000 44.850 5.154 38.149
165 165 1 0.0000 19.551 30.359 0.197
166 166 1 0.0000 -5.890 11.897 16.963
167 167 1 0.0000 4.913 14.424 25.606
168 168 1 0.0000 28.980 10.022 35.240
169 169 1 0.0000 36.081 42.109 16.166
170 170 1 0.0000 43.899 16.000 41.543
171 171 1 0.0000 24.315 14.520 3.538
172 172 1 0.0000 40.201 44.239 38.029
173 173 1 0.0000 15.850 14.158 6.192
174 174 1 0.0000 20.439 -5.840 14.775
175 175 1 0.0000 26.331 -1.364 10.758
176 176 1 0.0000 23.842 20.944 26.925
177 177 1 0.0000 -2.967 -0.961 37.653
178 178 1 0.0000 5.897 -5.415 48.447
179 179 1 0.0000 6.942 46.337 17.401
180 180 1 0.0000 20.813 40.896 34.465
181 181 1 0.0000 2.052 8.597 -1.958
182 182 1 0.0000 43.558 10.914 5.027
183 183 1 0.0000 -3.038 32.076 43.941
184 184 1 0.0000 34.188 18.211 40.789
185 185 1 0.0000 9.736 41.472 17.434
186 186 1 0.0000 -5.235 9.482 26.170
187 187 1 0.0000 -3.711 2.225 26.814
188 188 1 0.0000 -3.813 1.032 28.539
189 189 1 0.0000 4.019 10.631 39.154
190 190 1 0.0000 18.359 44.687 41.323
191 191 1 0.0000 22.546 39.874 26.853
192 192 1 0.0000 -1.785 -5.263 19.673
193 193 1 0.0000 18.719 26.899 16.929
194 194 1 0.0000 41.216 4.193 17.693
195 195 1 0.0000 8.216 21.689 20.845
196 196 1 0.0000 21.796 15.256 38.861
197 197 1 0.0000 -0.081 -5.150 1.665
198 198 1 0.0000 7.722 -0.695 43.823
199 199 1 0.0000 -1.564 38.705 45.075
200 200 1 0.0000 -1.148 39.598 -3.316
201 201 1 0.0000 43.872 6.104 16.556
202 202 1 0.0000 -4.705 19.738 16.766
203 203 1 0.0000 27.441 18.712 40.998
204 204 1 0.0000 7.821 37.666 0.774
205 205 1 0.0000 12.789 46.551 17.697
206 206 1 0.0000 23.153 1.960 16.784
207 207 1 0.0000 -3.388 46.739 40.214
208 208 1 0.0000 -4.827 22.131 15.235
209 209 1 0.0000 2.710 -4.739 12.809
210 210 1 0.0000 -0.447 41.597 37.518
211 211 1 0.0000 39.424 16.706 5.903
212 212 1 0.0000 -6.389 13.588 7.487
213 213 1 0.0000 29.922 27.226 5.178
214 214 1 0.0000 40.357 7.677 14.730
215 215 1 0.0000 33.191 25.954 3.376
216 216 1 0.0000 5.303 -2.378 14.538
217 217 1 0.0000 -3.864 14.651 8.377
218 218 1 0.0000 -1.676 16.816 9.650
219 219 1 0.0000 37.899 39.944 1.683
220 220 1 0.0000 -1.591 21.405 14.911
221 221 1 0.0000 25.957 27.073 26.025
222 222 1 0.0000 29.459 21.752 28.266
223 223 1 0.0000 41.353 31.022 21.686
224 224 1 0.0000 35.623 -5.034 40.633
225 225 1 0.0000 26.760 -6.835 39.619
226 226 1 0.0000 21.330 -1.361 25.684
227 227 1 0.0000 16.394 20.559 7.401
228 228 1 0.0000 23.758 39.345 23.878
229 229 1 0.0000 15.654 7.744 31.184
230 230 1 0.0000 4.874 1.141 25.937
231 231 1 0.0000 43.901 26.434 -1.854
232 232 1 0.0000 -2.053 36.585 39.309
233 233 1 0.0000 25.827 29.224 36.623
234 234 1 0.0000 26.596 37.665 27.546
235 235 1 0.0000 38.870 40.877 3.966
236 236 1 0.0000 12.785 8.155 44.060
237 237 1 0.0000 21.932 1.496 -1.352
238 238 1 0.0000 46.688 16.416 35.620
239 239 1 0.0000 40.290 -5.246 41.659
240 240 1 0.0000 37.515 22.754 30.752
241 241 1 0.0000 8.226 2.628 27.111
242 242 1 0.0000 25.581 4.708 34.784
243 243 1 0.0000 25.005 27.438 44.561
244 244 1 0.0000 33.066 44.875 14.949
245 245 1 0.0000 21.821 -2.541 36.944
246 246 1 0.0000 -2.919 11.761 24.656
247 247 1 0.0000 41.327 16.811 42.432
248 248 1 0.0000 -1.324 18.905 21.049
249 249 1 0.0000 0.096 20.388 44.200
250 250 1 0.0000 35.808 47.431 37.866
251 251 1 0.0000 47.090 21.770 4.969
252 252 1 0.0000 12.163 9.490 16.082
253 253 1 0.0000 13.568 16.395 7.343
254 254 1 0.0000 9.975 15.244 38.810
255 255 1 0.0000 44.543 7.650 12.450
256 256 1 0.0000 26.729 42.105 40.074
257 257 1 0.0000 12.802 4.070 36.704
258 258 1 0.0000 4.191 38.925 0.709
259 259 1 0.0000 35.567 -5.191 22.302
260 260 1 0.0000 37.485 -4.687 1.847
261 261 1 0.0000 20.557 4.238 18.885
262 262 1 0.0000 -5.249 5.878 29.701
263 263 1 0.0000 42.247 18.002 29.775
264 264 1 0.0000 20.299 20.326 10.832
265 265 1 0.0000 36.040 45.438 37.745
266 266 1 0.0000 38.004 43.311 39.066
267 267 1 0.0000 6.434 46.212 14.119
268 268 1 0.0000 7.911 43.274 18.014
269 269 1 0.0000 39.232 -1.077 23.667
270 270 1 0.0000 1.235 -1.625 25.328
271 271 1 0.0000 39.366 -7.097 43.149
272 272 1 0.0000 -4.713 19.946 25.912
273 273 1 0.0000 28.729 8.679 -3.351
274 274 1 0.0000 25.617 37.298 11.038
275 275 1 0.0000 40.893 3.513 42.513
276 276 1 0.0000 29.747 7.095 15.481
277 277 1 0.0000 34.731 -2.976 45.229
278 278 1 0.0000 27.977 7.258 12.367
279 279 1 0.0000 0.770 6.151 31.245
280 280 1 0.0000 40.230 35.014 9.297
281 281 1 0.0000 -1.041 21.474 22.593
282 282 1 0.0000 43.564 42.285 37.646
283 283 1 0.0000 28.913 20.380 13.078
284 284 1 0.0000 31.893 26.457 40.816
285 285 1 0.0000 1.740 22.967 29.140
286 286 1 0.0000 30.726 35.124 45.290
287 287 1 0.0000 31.345 -0.823 39.762
288 288 1 0.0000 37.863 31.860 18.839
289 289 1 0.0000 1.893 3.959 -1.961
290 290 1 0.0000 43.344 35.853 17.876
291 291 1 0.0000 42.632 21.288 8.032
292 292 1 0.0000 26.749 45.275 28.973
293 293 1 0.0000 44.770 9.058 18.257
294 294 1 0.0000 30.818 1.281 -4.621
295 295 1 0.0000 -4.872 48.543 42.676
296 296 1 0.0000 26.602 9.357 -2.544
297 297 1 0.0000 3.067 33.635 24.991
298 298 1 0.0000 21.261 13.292 25.551
299 299 1 0.0000 8.226 13.786 30.918
300 300 1 0.0000 1.778 -4.478 38.822
301 301 1 0.0000 47.620 40.971 23.477
302 302 1 0.0000 12.507 28.416 5.969
303 303 1 0.0000 6.186 19.113 32.534
304 304 1 0.0000 39.813 42.099 39.931
305 305 1 0.0000 3.435 8.187 4.815
306 306 1 0.0000 34.949 -2.914 14.839
307 307 1 0.0000 18.770 34.066 3.353
308 308 1 0.0000 9.851 -2.927 5.689
309 309 1 0.0000 3.727 17.078 45.351
310 310 1 0.0000 14.298 6.738 12.885
311 311 1 0.0000 6.337 28.789 30.501
312 312 1 0.0000 48.802 25.924 -0.911
313 313 1 0.0000 36.858 -2.159 -4.547
314 314 1 0.0000 32.027 27.333 -0.936
315 315 1 0.0000 43.437 46.246 1.065
316 316 1 0.0000 30.190 9.868 10.860
317 317 1 0.0000 -1.563 -3.200 35.496
318 318 1 0.0000 11.713 27.207 12.650
319 319 1 0.0000 31.889 8.916 42.966
320 320 1 0.0000 32.486 5.298 -1.103
321 321 1 0.0000 -0.904 -5.728 41.367
322 322 1 0.0000 23.416 36.524 1.562
323 323 1 0.0000 7.555 33.212 38.478
324 324 1 0.0000 11.542 23.267 32.420
325 325 1 0.0000 28.858 27.165 22.562
326 326 1 0.0000 29.779 39.589 30.925
327 327 1 0.0000 9.838 19.032 40.913
328 328 1 0.0000 31.966 11.188 30.945
329 329 1 0.0000 15.593 31.900 10.296
330 330 1 0.0000 -0.346 -5.804 5.366
331 331 1 0.0000 16.635 36.721 28.195
332 332 1 0.0000 14.073 -5.379 9.201
333 333 1 0.0000 34.109 28.342 37.650
334 334 1 0.0000 19.961 19.138 39.519
335 335 1 0.0000 -1.634 23.249 11.659
336 336 1 0.0000 45.190 35.568 5.339
337 337 1 0.0000 32.805 6.910 0.846
338 338 1 0.0000 11.726 -1.510 -5.297
339 339 1 0.0000 33.757 12.740 45.252
340 340 1 0.0000 43.147 21.634 21.428
341 341 1 0.0000 33.401 23.570 40.582
342 342 1 0.0000 13.838 28.586 45.543
343 343 1 0.0000 28.550 0.449 19.902
344 344 1 0.0000 -1.280 42.578 17.821
345 345 1 0.0000 20.334 40.484 12.517
346 346 1 0.0000 -5.853 7.293 33.952
347 347 1 0.0000 37.942 14.490 23.173
348 348 1 0.0000 16.779 0.699 42.112
349 349 1 0.0000 42.013 41.762 18.077
350 350 1 0.0000 6.039 -7.319 9.503
351 351 1 0.0000 35.164 28.946 2.965
352 352 1 0.0000 8.402 -5.496 1.255
353 353 1 0.0000 -2.309 -0.769 41.982
354 354 1 0.0000 5.414 -2.791 11.136
355 355 1 0.0000 9.059 -0.890 5.085
356 356 1 0.0000 14.884 -2.437 -2.053
357 357 1 0.0000 41.836 -3.584 3.549
358 358 1 0.0000 37.401 -5.766 -5.511
359 359 1 0.0000 36.051 -7.356 -2.853
360 360 1 0.0000 34.704 9.724 14.190
361 361 1 0.0000 41.835 25.671 -0.839
362 362 1 0.0000 8.726 44.985 28.252
363 363 1 0.0000 42.128 28.220 38.928
364 364 1 0.0000 45.650 18.432 9.743
365 365 1 0.0000 -3.138 43.152 13.944
366 366 1 0.0000 22.967 4.233 14.980
367 367 1 0.0000 3.842 11.879 -2.185
368 368 1 0.0000 1.531 0.113 17.055
369 369 1 0.0000 37.007 40.740 45.984
370 370 1 0.0000 19.419 43.309 45.984
371 371 1 0.0000 22.610 8.898 31.182
372 372 1 0.0000 33.428 0.908 27.684
373 373 1 0.0000 36.335 -0.827 -1.495
374 374 1 0.0000 30.196 25.078 26.044
375 375 1 0.0000 39.648 -1.075 2.087
376 376 1 0.0000 43.869 41.123 19.590
377 377 1 0.0000 38.351 -3.734 29.131
378 378 1 0.0000 18.234 10.160 17.134
379 379 1 0.0000 36.984 13.023 46.819
380 380 1 0.0000 0.558 15.838 17.844
381 381 1 0.0000 22.656 32.276 23.894
382 382 1 0.0000 16.734 22.758 10.839
383 383 1 0.0000 38.004 39.362 7.747
384 384 1 0.0000 12.006 -0.320 26.456
385 385 1 0.0000 41.538 31.699 44.119
386 386 1 0.0000 -2.715 46.841 38.242
387 387 1 0.0000 43.554 43.541 27.723
388 388 1 0.0000 42.103 17.230 27.381
389 389 1 0.0000 -3.496 8.089 15.759
390 390 1 0.0000 1.709 4.186 33.290
391 391 1 0.0000 5.343 7.442 8.509
392 392 1 0.0000 6.371 27.807 12.661
393 393 1 0.0000 41.118 26.344 22.711
394 394 1 0.0000 13.904 12.670 42.493
395 395 1 0.0000 -0.964 32.228 19.815
396 396 1 0.0000 42.158 30.989 32.273
397 397 1 0.0000 15.390 14.585 34.748
398 398 1 0.0000 12.641 14.224 2.496
399 399 1 0.0000 47.879 -3.504 7.534
400 400 1 0.0000 25.329 36.618 32.979
401 401 1 0.0000 0.224 6.284 17.885
402 402 1 0.0000 -0.417 39.518 35.628
403 403 1 0.0000 41.311 43.487 15.084
404 404 1 0.0000 42.814 30.273 36.065
405 405 1 0.0000 6.786 41.748 24.053
406 406 1 0.0000 11.512 33.969 34.567
407 407 1 0.0000 24.155 11.415 17.434
408 408 1 0.0000 11.768 28.249 18.627
409 409 1 0.0000 12.034 -3.526 7.107
410 410 1 0.0000 22.995 44.396 4.991
411 411 1 0.0000 -1.639 18.751 23.354
412 412 1 0.0000 22.198 38.085 11.413
413 413 1 0.0000 41.577 41.227 38.120
414 414 1 0.0000 16.009 -4.993 8.467
415 415 1 0.0000 19.483 13.416 16.961
416 416 1 0.0000 13.796 -1.236 8.896
417 417 1 0.0000 -1.667 9.405 30.004
418 418 1 0.0000 38.410 28.801 -0.079
419 419 1 0.0000 14.637 18.439 32.087
420 420 1 0.0000 23.879 0.430 41.695
421 421 1 0.0000 3.943 41.816 38.709
422 422 1 0.0000 17.432 18.148 43.613
423 423 1 0.0000 6.149 39.964 17.957
424 424 1 0.0000 12.070 44.007 18.292
425 425 1 0.0000 -3.997 15.966 32.785
426 426 1 0.0000 42.566 20.767 34.721
427 427 1 0.0000 43.102 2.074 39.951
428 428 1 0.0000 33.984 15.922 -7.444
429 429 1 0.0000 27.874 19.249 44.168
430 430 1 0.0000 32.269 46.473 16.110
431 431 1 0.0000 5.979 23.709 38.584
432 432 1 0.0000 -4.521 42.957 37.997
433 433 1 0.0000 42.813 22.785 12.306
434 434 1 0.0000 4.813 1.850 18.673
435 435 1 0.0000 37.435 -2.616 11.461
436 436 1 0.0000 18.169 12.519 26.601
437 437 1 0.0000 44.252 44.770 8.581
438 438 1 0.0000 44.229 46.226 40.281
439 439 1 0.0000 0.216 45.078 -3.607
440 440 1 0.0000 13.771 33.597 15.639
441 441 1 0.0000 29.715 22.595 1.441
442 442 1 0.0000 43.824 21.479 41.172
443 443 1 0.0000 1.915 35.361 20.436
444 444 1 0.0000 13.821 29.426 31.515
445 445 1 0.0000 33.502 14.101 20.750
446 446 1 0.0000 26.557 27.557 1.596
447 447 1 0.0000 37.598 -1.199 28.810
448 448 1 0.0000 44.145 24.517 11.607
449 449 1 0.0000 17.729 6.061 -4.849
450 450 1 0.0000 28.269 -7.230 41.611
451 451 1 0.0000 8.830 43.395 -0.571
452 452 1 0.0000 28.906 32.855 16.137
453 453 1 0.0000 34.165 45.567 20.346
454 454 1 0.0000 44.637 -4.607 5.320
455 455 1 0.0000 5.693 29.543 -0.925
456 456 1 0.0000 39.775 31.858 34.422
457 457 1 0.0000 2.442 10.215 18.959
458 458 1 0.0000 37.142 -7.581 6.040
459 459 1 0.0000 -6.028 40.220 4.578
460 460 1 0.0000 2.816 43.330 6.403
461 461 1 0.0000 40.360 9.522 41.939
462 462 1 0.0000 21.519 16.801 27.728
463 463 1 0.0000 29.556 31.039 20.972
464 464 1 0.0000 27.012 45.310 35.442
465 465 1 0.0000 16.327 32.082 35.325
466 466 1 0.0000 2.883 2.259 44.328
467 467 1 0.0000 45.222 29.913 33.923
468 468 1 0.0000 30.622 17.003 4.857
469 469 1 0.0000 43.409 -4.139 6.953
470 470 1 0.0000 26.935 32.957 28.099
471 471 1 0.0000 26.782 -3.354 41.028
472 472 1 0.0000 28.555 40.921 -0.976
473 473 1 0.0000 4.510 -2.611 42.086
474 474 1 0.0000 12.099 41.388 7.310
475 475 1 0.0000 2.492 9.624 9.579
476 476 1 0.0000 23.308 12.645 25.316
477 477 1 0.0000 32.954 7.528 40.033
478 478 1 0.0000 23.963 6.196 20.269
479 479 1 0.0000 4.222 13.531 30.990
480 480 1 0.0000 15.764 9.177 2.984
481 481 1 0.0000 6.478 2.276 41.391
482 482 1 0.0000 40.998 2.598 47.392
483 483 1 0.0000 41.390 0.601 5.218
484 484 1 0.0000 27.662 31.969 31.874
485 485 1 0.0000 -0.999 44.226 -1.738
486 486 1 0.0000 41.814 30.565 41.646
487 487 1 0.0000 26.010 35.343 31.139
488 488 1 0.0000 9.275 24.900 24.320
489 489 1 0.0000 19.777 14.648 35.459
490 490 1 0.0000 16.209 31.315 45.244
491 491 1 0.0000 24.402 12.306 23.067
492 492 1 0.0000 15.517 33.269 42.872
493 493 1 0.0000 25.116 34.366 26.547
494 494 1 0.0000 43.406 -0.144 43.664
495 495 1 0.0000 7.609 9.630 18.189
496 496 1 0.0000 43.212 25.537 44.170
497 497 1 0.0000 21.772 28.898 2.431
498 498 1 0.0000 31.345 27.176 27.543
499 499 1 0.0000 34.994 17.381 3.216
500 500 1 0.0000 27.361 33.743 30.110
501 501 1 0.0000 31.927 29.834 -0.725
502 502 1 0.0000 37.299 1.988 28.587
503 503 1 0.0000 45.538 42.576 10.438
504 504 1 0.0000 33.218 32.653 31.895
505 505 1 0.0000 27.092 13.355 32.878
506 506 1 0.0000 18.090 14.903 45.759
507 507 1 0.0000 44.469 19.587 12.166
508 508 1 0.0000 30.894 35.394 22.862
509 509 1 0.0000 14.707 1.189 45.641
510 510 1 0.0000 38.970 23.262 16.272
511 511 1 0.0000 44.335 22.602 23.017
512 512 1 0.0000 36.329 48.639 43.891
513 513 1 0.0000 23.430 32.171 7.690
514 514 1 0.0000 43.788 20.711 43.141
515 515 1 0.0000 29.324 6.826 31.213
516 516 1 0.0000 12.448 15.506 20.911
517 517 1 0.0000 44.700 7.913 -2.469
518 518 1 0.0000 12.078 3.626 44.359
519 519 1 0.0000 7.602 44.031 6.090
520 520 1 0.0000 47.082 25.536 43.220
521 521 1 0.0000 6.555 28.927 15.399
522 522 1 0.0000 29.066 46.160 34.610
523 523 1 0.0000 24.678 41.108 -7.327
524 524 1 0.0000 14.014 20.070 -0.842
525 525 1 0.0000 42.222 33.946 33.491
526 526 1 0.0000 13.733 43.486 22.748
527 527 1 0.0000 32.202 21.151 11.269
528 528 1 0.0000 30.854 12.115 24.900
529 529 1 0.0000 32.599 44.480 -0.908
530 530 1 0.0000 41.895 25.465 24.852
531 531 1 0.0000 42.595 11.036 31.934
532 532 1 0.0000 25.759 34.946 11.305
533 533 1 0.0000 34.053 33.556 0.288
534 534 1 0.0000 5.994 33.695 41.116
535 535 1 0.0000 32.810 17.240 33.141
536 536 1 0.0000 14.356 22.020 5.494
537 537 1 0.0000 35.989 -4.574 11.224
538 538 1 0.0000 42.645 1.821 34.401
539 539 1 0.0000 42.326 3.516 6.386
540 540 1 0.0000 40.813 -2.371 10.088
541 541 1 0.0000 27.921 24.060 1.165
542 542 1 0.0000 -0.506 21.576 -2.138
543 543 1 0.0000 19.896 36.090 43.077
544 544 1 0.0000 16.999 40.472 6.581
545 545 1 0.0000 1.021 22.045 1.460
546 546 1 0.0000 18.142 26.522 0.200
547 547 1 0.0000 4.332 26.618 -1.945
548 548 1 0.0000 -4.251 9.228 30.758
549 549 1 0.0000 -7.011 15.836 4.939
550 550 1 0.0000 11.902 -3.784 33.085
551 551 1 0.0000 -1.604 11.865 30.465
552 552 1 0.0000 5.120 6.763 33.837
553 553 1 0.0000 17.544 16.945 25.138
554 554 1 0.0000 -1.340 33.599 42.771
555 555 1 0.0000 -3.609 41.387 25.920
556 556 1 0.0000 44.871 14.331 2.918
557 557 1 0.0000 -2.172 43.878 29.341
558 558 1 0.0000 8.015 46.476 38.771
559 559 1 0.0000 8.833 6.842 29.940
560 560 1 0.0000 42.731 8.936 42.956
561 561 1 0.0000 -1.757 13.269 33.254
562 562 1 0.0000 21.917 18.478 34.551
563 563 1 0.0000 35.950 40.466 2.223
564 564 1 0.0000 16.217 4.969 -6.006
565 565 1 0.0000 30.036 48.961 40.844
566 566 1 0.0000 45.911 32.420 46.385
567 567 1 0.0000 35.528 41.477 39.482
568 568 1 0.0000 27.442 45.689 42.451
569 569 1 0.0000 31.117 45.935 42.724
570 570 1 0.0000 43.752 8.552 46.795
571 571 1 0.0000 26.260 39.192 23.228
572 572 1 0.0000 12.144 47.924 20.602
573 573 1 0.0000 17.563 32.909 22.938
574 574 1 0.0000 11.483 30.034 43.545
575 575 1 0.0000 22.752 41.378 16.966
576 576 1 0.0000 10.777 27.340 3.688
577 577 1 0.0000 0.895 34.281 40.399
578 578 1 0.0000 35.434 3.099 27.167
579 579 1 0.0000 12.850 45.624 30.392
580 580 1 0.0000 -1.082 30.386 38.128
581 581 1 0.0000 27.313 29.007 31.890
582 582 1 0.0000 29.361 19.548 29.641
583 583 1 0.0000 31.537 43.920 3.872
584 584 1 0.0000 16.131 42.831 30.321
585 585 1 0.0000 14.923 23.313 15.160
586 586 1 0.0000 28.566 18.757 32.632
587 587 1 0.0000 23.152 41.302 12.510
588 588 1 0.0000 29.676 26.515 30.021
589 589 1 0.0000 27.250 39.542 26.913
590 590 1 0.0000 24.364 36.747 18.421
591 591 1 0.0000 25.623 24.255 32.297
592 592 1 0.0000 7.282 5.050 -5.519
593 593 1 0.0000 31.480 41.793 4.119
594 594 1 0.0000 43.182 38.291 38.850
595 595 1 0.0000 16.350 -3.110 1.211
596 596 1 0.0000 19.135 19.842 17.103
597 597 1 0.0000 11.927 5.291 9.957
598 598 1 0.0000 44.461 33.614 32.498
599 599 1 0.0000 31.797 38.479 46.106
600 600 1 0.0000 37.443 18.758 1.264
601 601 1 0.0000 17.504 0.837 1.576
602 602 1 0.0000 24.488 22.082 41.819
603 603 1 0.0000 -6.476 39.017 9.344
604 604 1 0.0000 44.075 -3.055 9.003
605 605 1 0.0000 -4.267 36.913 6.993
606 606 1 0.0000 22.869 -4.022 2.210
607 607 1 0.0000 12.776 43.548 4.348
608 608 1 0.0000 37.500 34.317 41.316
609 609 1 0.0000 30.724 8.959 2.081
610 610 1 0.0000 42.832 31.552 -1.615
611 611 1 0.0000 5.879 36.343 42.245
612 612 1 0.0000 48.429 44.099 6.184
613 613 1 0.0000 -4.580 32.724 10.273
614 614 1 0.0000 2.451 33.129 44.330
615 615 1 0.0000 3.410 7.298 32.292
616 616 1 0.0000 22.570 38.983 19.348
617 617 1 0.0000 6.951 38.731 14.804
618 618 1 0.0000 24.175 20.518 32.542
619 619 1 0.0000 30.207 8.477 29.750
620 620 1 0.0000 -2.090 32.108 3.273
621 621 1 0.0000 20.785 -0.151 1.702
622 622 1 0.0000 21.599 7.071 -3.253
623 623 1 0.0000 20.644 -2.316 -2.135
624 624 1 0.0000 0.875 13.983 2.785
625 625 1 0.0000 23.118 -4.119 15.745
626 626 1 0.0000 -2.839 35.782 -1.295
627 627 1 0.0000 -3.507 25.388 12.749
628 628 1 0.0000 -5.108 36.020 9.764
629 629 1 0.0000 45.876 28.957 21.099
630 630 1 0.0000 19.090 44.586 21.955
631 631 1 0.0000 16.846 6.816 35.798
632 632 1 0.0000 -1.907 30.880 8.292
633 633 1 0.0000 17.810 -3.352 42.808
634 634 1 0.0000 7.202 -1.854 11.283
635 635 1 0.0000 -2.223 -8.639 44.587
636 636 1 0.0000 12.520 7.323 38.581
637 637 1 0.0000 21.805 4.484 -2.830
638 638 1 0.0000 21.457 21.745 1.600
639 639 1 0.0000 21.023 22.605 43.211
640 640 1 0.0000 45.518 -6.474 19.969
641 641 1 0.0000 23.431 42.563 24.803
642 642 1 0.0000 12.936 8.204 9.782
643 643 1 0.0000 20.627 -4.256 44.459
644 644 1 0.0000 9.238 33.508 10.721
645 645 1 0.0000 42.364 -5.881 12.909
646 646 1 0.0000 20.592 2.837 41.970
647 647 1 0.0000 28.151 38.693 23.651
648 648 1 0.0000 35.554 4.741 23.338
649 649 1 0.0000 38.679 -4.233 17.339
650 650 1 0.0000 21.992 29.242 44.611
651 651 1 0.0000 29.684 30.510 32.234
652 652 1 0.0000 30.567 7.139 5.447
653 653 1 0.0000 18.952 2.978 -2.069
654 654 1 0.0000 32.398 5.950 33.160
655 655 1 0.0000 42.181 -0.040 22.582
656 656 1 0.0000 -2.514 -3.173 45.908
657 657 1 0.0000 45.102 -3.300 17.761
658 658 1 0.0000 19.228 17.320 19.839
659 659 1 0.0000 8.985 5.847 32.356
660 660 1 0.0000 45.029 -0.775 18.748
661 661 1 0.0000 -0.129 33.943 -1.130
662 662 1 0.0000 5.260 7.676 29.347
663 663 1 0.0000 15.285 30.695 4.660
664 664 1 0.0000 24.216 29.571 3.204
665 665 1 0.0000 37.184 41.652 37.908
666 666 1 0.0000 35.387 18.304 9.894
667 667 1 0.0000 10.585 20.035 31.650
668 668 1 0.0000 33.772 4.493 11.890
669 669 1 0.0000 21.181 18.158 16.056
670 670 1 0.0000 18.852 43.274 24.370
671 671 1 0.0000 38.976 29.866 13.750
672 672 1 0.0000 22.401 18.993 11.972
673 673 1 0.0000 35.744 29.982 4.948
674 674 1 0.0000 10.282 4.889 29.807
675 675 1 0.0000 36.597 14.055 35.318
676 676 1 0.0000 23.537 -2.135 45.631
677 677 1 0.0000 14.105 0.965 21.886
678 678 1 0.0000 40.649 20.037 1.564
679 679 1 0.0000 41.293 3.243 -0.223
680 680 1 0.0000 15.897 19.864 18.158
681 681 1 0.0000 26.874 32.523 15.942
682 682 1 0.0000 -5.277 25.061 25.923
683 683 1 0.0000 45.250 7.412 24.969
684 684 1 0.0000 8.825 32.523 24.783
685 685 1 0.0000 6.956 10.896 43.898
686 686 1 0.0000 23.293 12.095 29.624
687 687 1 0.0000 2.262 43.599 46.675
688 688 1 0.0000 35.105 45.352 43.304
689 689 1 0.0000 30.757 19.582 39.199
690 690 1 0.0000 36.805 44.214 24.585
691 691 1 0.0000 3.582 20.723 32.454
692 692 1 0.0000 -2.836 32.517 13.475
693 693 1 0.0000 40.443 5.857 36.541
694 694 1 0.0000 -1.368 37.619 14.157
695 695 1 0.0000 44.821 41.898 45.523
696 696 1 0.0000 29.716 32.391 10.910
697 697 1 0.0000 32.357 34.187 9.997
698 698 1 0.0000 4.573 14.458 10.454
699 699 1 0.0000 -2.909 20.974 19.759
700 700 1 0.0000 14.526 31.462 42.378
701 701 1 0.0000 -1.462 19.941 34.252
702 702 1 0.0000 5.359 2.342 2.191
703 703 1 0.0000 1.054 19.088 40.673
704 704 1 0.0000 34.360 31.661 27.238
705 705 1 0.0000 5.645 4.558 33.798
706 706 1 0.0000 34.185 41.404 -2.818
707 707 1 0.0000 33.375 39.781 1.419
708 708 1 0.0000 26.124 -4.246 1.473
709 709 1 0.0000 8.679 31.056 42.489
710 710 1 0.0000 -4.825 20.987 23.884
711 711 1 0.0000 10.124 7.823 -3.672
712 712 1 0.0000 26.979 41.381 3.094
713 713 1 0.0000 7.876 40.817 42.570
714 714 1 0.0000 41.812 13.643 17.833
715 715 1 0.0000 35.181 32.767 11.235
716 716 1 0.0000 42.917 31.240 17.438
717 717 1 0.0000 26.891 45.365 19.694
718 718 1 0.0000 -0.959 14.388 42.807
719 719 1 0.0000 16.130 6.423 33.499
720 720 1 0.0000 3.216 6.637 35.408
721 721 1 0.0000 10.201 -1.326 30.074
722 722 1 0.0000 6.491 -6.221 29.111
723 723 1 0.0000 42.154 5.570 31.495
724 724 1 0.0000 29.445 43.792 -0.360
725 725 1 0.0000 14.163 35.418 38.571
726 726 1 0.0000 34.099 41.774 6.824
727 727 1 0.0000 28.492 -4.390 1.422
728 728 1 0.0000 41.371 25.682 29.028
729 729 1 0.0000 19.805 42.482 41.492
730 730 1 0.0000 2.660 15.361 42.731
731 731 1 0.0000 11.000 27.123 21.002
732 732 1 0.0000 6.249 -1.088 29.322
733 733 1 0.0000 48.207 22.458 28.347
734 734 1 0.0000 9.189 8.498 37.562
735 735 1 0.0000 29.239 -2.093 3.516
736 736 1 0.0000 4.165 20.059 -5.821
737 737 1 0.0000 51.388 21.873 21.168
738 738 1 0.0000 19.237 38.999 46.278
739 739 1 0.0000 -2.261 14.674 16.797
740 740 1 0.0000 8.226 34.117 22.252
741 741 1 0.0000 5.688 20.861 46.825
742 742 1 0.0000 19.774 46.842 -3.577
743 743 1 0.0000 24.794 47.983 43.773
744 744 1 0.0000 46.452 14.472 16.492
745 745 1 0.0000 22.866 30.685 11.702
746 746 1 0.0000 -0.027 -4.009 16.568
747 747 1 0.0000 44.231 45.818 14.386
748 748 1 0.0000 42.213 37.494 -3.738
749 749 1 0.0000 0.477 22.212 24.794
750 750 1 0.0000 7.525 14.772 7.056
751 751 1 0.0000 27.673 9.013 17.076
752 752 1 0.0000 19.649 23.315 34.352
753 753 1 0.0000 45.197 29.468 24.865
754 754 1 0.0000 47.198 12.084 32.499
755 755 1 0.0000 33.085 6.270 15.705
756 756 1 0.0000 32.615 7.318 21.076
757 757 1 0.0000 41.255 29.998 3.978
758 758 1 0.0000 25.170 18.270 12.292
759 759 1 0.0000 32.036 33.779 15.435
760 760 1 0.0000 9.365 1.695 -3.648
761 761 1 0.0000 15.453 0.436 39.740
762 762 1 0.0000 7.178 5.595 -2.966
763 763 1 0.0000 29.927 5.655 6.665
764 764 1 0.0000 12.015 3.050 40.817
765 765 1 0.0000 35.044 9.594 18.658
766 766 1 0.0000 20.676 30.192 42.358
767 767 1 0.0000 -5.655 23.601 17.719
768 768 1 0.0000 2.725 31.096 41.394
769 769 1 0.0000 21.325 17.196 17.869
770 770 1 0.0000 23.896 -0.516 10.597
771 771 1 0.0000 38.913 12.399 -5.358
772 772 1 0.0000 43.226 35.369 43.761
773 773 1 0.0000 12.887 31.268 45.442
774 774 1 0.0000 22.960 18.336 23.278
775 775 1 0.0000 7.354 1.111 -6.017
776 776 1 0.0000 37.162 4.226 6.593
777 777 1 0.0000 8.445 3.166 -1.859
778 778 1 0.0000 25.997 30.867 33.236
779 779 1 0.0000 42.119 35.606 -2.699
780 780 1 0.0000 38.685 38.171 -4.233
781 781 1 0.0000 19.172 17.786 16.407
782 782 1 0.0000 43.544 18.005 46.263
783 783 1 0.0000 4.924 1.304 12.507
784 784 1 0.0000 9.207 -1.507 15.067
785 785 1 0.0000 3.310 36.254 44.915
786 786 1 0.0000 27.610 25.322 34.157
787 787 1 0.0000 33.754 9.886 35.322
788 788 1 0.0000 0.969 24.753 25.798
789 789 1 0.0000 23.538 14.261 17.189
790 790 1 0.0000 44.182 41.897 0.245
791 791 1 0.0000 7.305 15.612 12.725
792 792 1 0.0000 4.843 21.479 14.767
793 793 1 0.0000 14.137 36.297 22.257
794 794 1 0.0000 22.497 6.743 2.578
795 795 1 0.0000 41.510 37.806 22.339
796 796 1 0.0000 23.581 -1.018 28.995
797 797 1 0.0000 25.911 35.779 35.797
798 798 1 0.0000 35.342 9.581 5.022
799 799 1 0.0000 28.922 22.429 43.511