LAMMPS Description # full

165 atoms
145 bonds
140 angles
145 dihedrals
25 impropers

11 atom types
9 bond types
9 angle types
5 dihedral types
2 improper types

-4.77 17.23 xlo xhi # 0.00 19.37
-2.56 19.44 ylo yhi # 0.00 19.37
-2.21 19.79 zlo zhi # 0.00 19.37

Masses

1 15.035 # CH3 Isobutane C 84
2 14.027 # CH2 n-Butane C 86
3 13.019 # CH Isobutane C 88
4 12.011 # C Carboxylic Acid C 133
5 15.999 # =O Carboxylic Acid O 134
6 15.999 # -O- Carboxylic Acid O 135
7 1.008 # H Carboxylic Acid H 136
8 14.007 # NR2 Tertiary Amide N 148
9 15.999 # O Amide Carbonyl O 151
10 13.019 # CH Formamide C 153
11 15.035 # CH3 N,N-DiMe Amide C 156

Pair Coeffs

1 0.1600 3.9100
2 0.1180 3.9050
3 0.0800 3.8500
4 0.1050 3.7500
5 0.2100 2.9600
6 0.1700 3.0000
7 0.0000 0.0000
8 0.1700 3.2500
9 0.2100 2.9600
10 0.1150 3.8000
11 0.1700 3.8000

Bond Coeffs

1  570.0 1.229
2  570.0 1.229
3  337.0 1.449
4  490.0 1.335
5  317.0 1.522
6  553.0 0.945
7  450.0 1.364
8  260.0 1.526
9  260.0 1.526

Angle Coeffs

1 50.0 121.9
2 50.0 118.0
3 70.0 117.0
4 80.0 126.0
5 80.0 122.9
6 35.0 113.0
7 63.0 112.4
8 63.0 112.4
9 63.0 112.4

Dihedral Coeffs

1  0.0 0.0 0.0 0.0
2  0.0 5.0 0.0 0.0
3  0.0 0.0 4.0 0.0
4  0.0 0.0 4.0 0.0
5  0.0 1.8 0.0 0.0

Improper Coeffs

1 14.0 -1 3
2 10.5 -1 2

Atoms

1 1 1 0.0000 -0.243 2.811 11.498
2 1 3 0.0800 -1.018 2.801 10.184
3 1 4 0.5500 -1.691 1.491 9.797
4 1 5 -0.5000 -2.787 1.534 9.243
5 1 6 -0.5800 -1.099 0.290 10.057
6 1 7 0.4500 -0.257 0.250 10.482
7 1 2 0.0000 -0.493 3.674 9.048
8 1 3 0.0800 0.174 4.977 9.480
9 1 4 0.5500 -0.748 5.632 10.499
10 1 5 -0.5000 -1.455 4.919 11.208
11 1 6 -0.5800 -0.833 6.982 10.667
12 1 7 0.4500 -1.601 7.469 10.409
13 1 2 0.0000 1.502 4.650 10.158
14 1 2 0.0800 2.557 5.666 9.730
15 1 4 0.5500 3.603 5.890 10.813
16 1 5 -0.5000 4.002 7.037 11.000
17 1 6 -0.5800 4.106 4.875 11.572
18 1 7 0.4500 3.586 4.161 11.911
19 2 1 0.0000 3.465 12.226 11.361
20 2 3 0.0800 3.797 11.216 10.266
21 2 4 0.5500 2.798 10.087 10.053
22 2 5 -0.5000 2.722 9.570 8.940
23 2 6 -0.5800 2.000 9.649 11.069
24 2 7 0.4500 1.290 9.051 10.900
25 2 2 0.0000 5.268 10.897 10.023
26 2 3 0.0800 6.254 11.973 10.473
27 2 4 0.5500 6.479 11.773 11.964
28 2 5 -0.5000 7.377 12.401 12.521
29 2 6 -0.5800 5.730 10.923 12.723
30 2 7 0.4500 6.036 10.597 13.555
31 2 2 0.0000 7.578 11.765 9.743
32 2 2 0.0800 8.696 12.471 10.504
33 2 4 0.5500 9.647 11.483 11.163
34 2 5 -0.5000 9.248 10.336 11.349
35 2 6 -0.5800 10.910 11.821 11.551
36 2 7 0.4500 11.105 12.498 12.181
37 3 1 0.0000 0.458 5.442 16.864
38 3 3 0.0800 1.547 4.835 15.985
39 3 4 0.5500 2.277 5.785 15.046
40 3 5 -0.5000 2.338 5.502 13.851
41 3 6 -0.5800 2.855 6.930 15.510
42 3 7 0.4500 3.431 6.910 16.258
43 3 2 0.0000 1.349 3.400 15.505
44 3 3 0.0800 0.241 2.622 16.211
45 3 4 0.5500 -0.073 3.367 17.499
46 3 5 -0.5000 -1.054 4.108 17.536
47 3 6 -0.5800 0.684 3.256 18.627
48 3 7 0.4500 0.598 2.521 19.215
49 3 2 0.0000 -1.003 2.625 15.325
50 3 2 0.0800 -1.032 3.904 14.492
51 3 4 0.5500 -1.067 5.150 15.365
52 3 5 -0.5000 -0.392 6.116 15.017
53 3 6 -0.5800 -1.811 5.230 16.505
54 3 7 0.4500 -1.442 5.254 17.375
55 4 1 0.0000 6.487 15.881 14.257
56 4 3 0.0800 7.531 15.678 15.351
57 4 4 0.5500 8.474 14.494 15.185
58 4 5 -0.5000 9.292 14.264 16.072
59 4 6 -0.5800 8.420 13.700 14.077
60 4 7 0.4500 8.282 14.074 13.222
61 4 2 0.0000 7.145 16.064 16.775
62 4 3 0.0800 7.077 17.565 17.050
63 4 4 0.5500 5.984 18.130 16.156
64 4 5 -0.5000 5.370 17.370 15.410
65 4 6 -0.5800 5.645 19.451 16.138
66 4 7 0.4500 4.980 19.803 16.710
67 4 2 0.0000 6.681 17.780 18.509
68 4 2 0.0800 7.721 17.135 19.420
69 4 4 0.5500 8.954 16.687 18.647
70 4 5 -0.5000 8.894 15.626 18.031
71 4 6 -0.5800 10.107 17.414 18.615
72 4 7 0.4500 10.942 17.093 18.921
73 5 1 0.0000 8.908 10.835 -2.739
74 5 3 0.0800 9.114 9.352 -2.446
75 5 4 0.5500 10.168 9.001 -1.406
76 5 5 -0.5000 9.923 9.219 -0.221
77 5 6 -0.5800 11.364 8.455 -1.770
78 5 7 0.4500 12.060 8.998 -2.104
79 5 2 0.0000 8.921 8.371 -3.598
80 5 3 0.0800 7.608 7.592 -3.581
81 5 4 0.5500 7.941 6.152 -3.944
82 5 5 -0.5000 7.520 5.244 -3.231
83 5 6 -0.5800 8.692 5.813 -5.030
84 5 7 0.4500 9.565 5.462 -4.942
85 5 2 0.0000 7.036 7.622 -2.166
86 5 2 0.0800 7.358 6.309 -1.457
87 5 4 0.5500 8.687 6.375 -0.717
88 5 5 -0.5000 9.717 6.229 -1.370
89 5 6 -0.5800 8.771 6.586 0.627
90 5 7 0.4500 8.185 6.200 1.261
91 6 11 0.2850 16.694 8.774 13.409
92 6 8 -0.5700 15.269 9.026 13.489
93 6 11 0.2850 14.799 9.829 14.599
94 6 10 0.5000 14.368 8.570 12.615
95 6 9 -0.5000 13.599 7.696 13.007
96 7 11 0.2850 7.997 3.519 9.534
97 7 8 -0.5700 7.414 3.407 10.857
98 7 11 0.2850 6.472 2.328 11.076
99 7 10 0.5000 7.685 4.225 11.876
100 7 9 -0.5000 8.852 4.287 12.252
101 8 11 0.2850 0.314 13.553 16.633
102 8 8 -0.5700 1.668 13.547 17.148
103 8 11 0.2850 2.548 14.612 16.711
104 8 10 0.5000 2.155 12.632 17.989
105 8 9 -0.5000 2.040 12.857 19.191
106 9 11 0.2850 6.464 14.361 -0.003
107 9 8 -0.5700 5.215 14.049 0.664
108 9 11 0.2850 4.017 14.021 -0.151
109 9 10 0.5000 5.096 13.791 1.969
110 9 9 -0.5000 4.090 13.188 2.332
111 10 11 0.2850 2.541 17.747 4.787
112 10 8 -0.5700 2.270 17.518 3.382
113 10 11 0.2850 3.004 18.322 2.426
114 10 10 0.5000 1.396 16.624 2.914
115 10 9 -0.5000 0.204 16.858 3.094
116 11 11 0.2850 7.744 1.152 3.713
117 11 8 -0.5700 8.319 -0.145 3.420
118 11 11 0.2850 7.490 -1.308 3.665
119 11 10 0.5000 9.552 -0.339 2.945
120 11 9 -0.5000 10.098 0.615 2.397
121 12 11 0.2850 12.422 16.819 0.701
122 12 8 -0.5700 13.021 16.746 -0.617
123 12 11 0.2850 14.255 15.999 -0.744
124 12 10 0.5000 12.516 17.320 -1.711
125 12 9 -0.5000 12.723 18.522 -1.861
126 13 11 0.2850 8.185 6.524 5.829
127 13 8 -0.5700 9.414 6.058 6.440
128 13 11 0.2850 9.360 4.804 7.163
129 13 10 0.5000 10.581 6.703 6.382
130 13 9 -0.5000 10.605 7.765 5.766
131 14 11 0.2850 17.045 9.653 3.166
132 14 8 -0.5700 15.608 9.512 3.294
133 14 11 0.2850 15.048 8.195 3.071
134 14 10 0.5000 14.773 10.509 3.599
135 14 9 -0.5000 13.589 10.356 3.312
136 15 11 0.2850 -0.214 0.351 -1.993
137 15 8 -0.5700 -0.882 0.213 -0.714
138 15 11 0.2850 -1.645 1.350 -0.239
139 15 10 0.5000 -0.839 -0.881 0.049
140 15 9 -0.5000 -1.114 -0.747 1.239
141 16 11 0.2850 18.795 0.154 14.065
142 16 8 -0.5700 17.681 1.079 13.995
143 16 11 0.2850 17.657 2.004 12.880
144 16 10 0.5000 16.686 1.135 14.882
145 16 9 -0.5000 16.892 0.642 15.988
146 17 11 0.2850 3.771 8.832 3.437
147 17 8 -0.5700 4.613 7.996 2.605
148 17 11 0.2850 6.012 7.895 2.968
149 17 10 0.5000 4.189 7.320 1.535
150 17 9 -0.5000 5.021 6.652 0.927
151 18 11 0.2850 -1.403 3.401 2.726
152 18 8 -0.5700 -1.590 4.192 3.926
153 18 11 0.2850 -0.609 5.222 4.201
154 18 10 0.5000 -2.597 4.034 4.788
155 18 9 -0.5000 -3.718 4.364 4.409
156 19 11 0.2850 7.457 2.200 16.153
157 19 8 -0.5700 8.016 2.980 17.239
158 19 11 0.2850 8.878 4.089 16.883
159 19 10 0.5000 7.793 2.745 18.534
160 19 9 -0.5000 7.630 3.722 19.262
161 20 11 0.2850 15.191 13.246 7.146
162 20 8 -0.5700 15.746 14.038 6.066
163 20 11 0.2850 16.952 14.791 6.348
164 20 10 0.5000 15.223 14.121 4.841
165 20 9 -0.5000 15.125 13.078 4.201

Bonds

1 9 1 2
2 5 2 3
3 1 3 4
4 7 3 5
5 6 5 6
6 9 7 8
7 5 8 9
8 1 9 10
9 7 9 11
10 6 11 12
11 8 13 14
12 5 14 15
13 1 15 16
14 7 15 17
15 6 17 18
16 9 2 7
17 9 8 13
18 9 19 20
19 5 20 21
20 1 21 22
21 7 21 23
22 6 23 24
23 9 25 26
24 5 26 27
25 1 27 28
26 7 27 29
27 6 29 30
28 8 31 32
29 5 32 33
30 1 33 34
31 7 33 35
32 6 35 36
33 9 20 25
34 9 26 31
35 9 37 38
36 5 38 39
37 1 39 40
38 7 39 41
39 6 41 42
40 9 43 44
41 5 44 45
42 1 45 46
43 7 45 47
44 6 47 48
45 8 49 50
46 5 50 51
47 1 51 52
48 7 51 53
49 6 53 54
50 9 38 43
51 9 44 49
52 9 55 56
53 5 56 57
54 1 57 58
55 7 57 59
56 6 59 60
57 9 61 62
58 5 62 63
59 1 63 64
60 7 63 65
61 6 65 66
62 8 67 68
63 5 68 69
64 1 69 70
65 7 69 71
66 6 71 72
67 9 56 61
68 9 62 67
69 9 73 74
70 5 74 75
71 1 75 76
72 7 75 77
73 6 77 78
74 9 79 80
75 5 80 81
76 1 81 82
77 7 81 83
78 6 83 84
79 8 85 86
80 5 86 87
81 1 87 88
82 7 87 89
83 6 89 90
84 9 74 79
85 9 80 85
86 3 91 92
87 3 92 93
88 4 92 94
89 2 94 95
90 3 96 97
91 3 97 98
92 4 97 99
93 2 99 100
94 3 101 102
95 3 102 103
96 4 102 104
97 2 104 105
98 3 106 107
99 3 107 108
100 4 107 109
101 2 109 110
102 3 111 112
103 3 112 113
104 4 112 114
105 2 114 115
106 3 116 117
107 3 117 118
108 4 117 119
109 2 119 120
110 3 121 122
111 3 122 123
112 4 122 124
113 2 124 125
114 3 126 127
115 3 127 128
116 4 127 129
117 2 129 130
118 3 131 132
119 3 132 133
120 4 132 134
121 2 134 135
122 3 136 137
123 3 137 138
124 4 137 139
125 2 139 140
126 3 141 142
127 3 142 143
128 4 142 144
129 2 144 145
130 3 146 147
131 3 147 148
132 4 147 149
133 2 149 150
134 3 151 152
135 3 152 153
136 4 152 154
137 2 154 155
138 3 156 157
139 3 157 158
140 4 157 159
141 2 159 160
142 3 161 162
143 3 162 163
144 4 162 164
145 2 164 165

Angles

1 9 1 2 3
2 9 7 2 3
3 3 2 3 4
4 4 4 3 5
5 6 3 5 6
6 8 8 7 2
7 9 7 8 9
8 9 13 8 9
9 3 8 9 10
10 4 10 9 11
11 6 9 11 12
12 7 14 13 8
13 7 13 14 15
14 3 14 15 16
15 4 16 15 17
16 6 15 17 18
17 9 19 20 21
18 9 25 20 21
19 3 20 21 22
20 4 22 21 23
21 6 21 23 24
22 8 26 25 20
23 9 25 26 27
24 9 31 26 27
25 3 26 27 28
26 4 28 27 29
27 6 27 29 30
28 7 32 31 26
29 7 31 32 33
30 3 32 33 34
31 4 34 33 35
32 6 33 35 36
33 9 37 38 39
34 9 43 38 39
35 3 38 39 40
36 4 40 39 41
37 6 39 41 42
38 8 44 43 38
39 9 43 44 45
40 9 49 44 45
41 3 44 45 46
42 4 46 45 47
43 6 45 47 48
44 7 50 49 44
45 7 49 50 51
46 3 50 51 52
47 4 52 51 53
48 6 51 53 54
49 9 55 56 57
50 9 61 56 57
51 3 56 57 58
52 4 58 57 59
53 6 57 59 60
54 8 62 61 56
55 9 61 62 63
56 9 67 62 63
57 3 62 63 64
58 4 64 63 65
59 6 63 65 66
60 7 68 67 62
61 7 67 68 69
62 3 68 69 70
63 4 70 69 71
64 6 69 71 72
65 9 73 74 75
66 9 79 74 75
67 3 74 75 76
68 4 76 75 77
69 6 75 77 78
70 8 80 79 74
71 9 79 80 81
72 9 85 80 81
73 3 80 81 82
74 4 82 81 83
75 6 81 83 84
76 7 86 85 80
77 7 85 86 87
78 3 86 87 88
79 4 88 87 89
80 6 87 89 90
81 1 94 92 91
82 1 94 92 93
83 2 91 92 93
84 5 92 94 95
85 1 99 97 96
86 1 99 97 98
87 2 96 97 98
88 5 97 99 100
89 1 104 102 101
90 1 104 102 103
91 2 101 102 103
92 5 102 104 105
93 1 109 107 106
94 1 109 107 108
95 2 106 107 108
96 5 107 109 110
97 1 114 112 111
98 1 114 112 113
99 2 111 112 113
100 5 112 114 115
101 1 119 117 116
102 1 119 117 118
103 2 116 117 118
104 5 117 119 120
105 1 124 122 121
106 1 124 122 123
107 2 121 122 123
108 5 122 124 125
109 1 129 127 126
110 1 129 127 128
111 2 126 127 128
112 5 127 129 130
113 1 134 132 131
114 1 134 132 133
115 2 131 132 133
116 5 132 134 135
117 1 139 137 136
118 1 139 137 138
119 2 136 137 138
120 5 137 139 140
121 1 144 142 141
122 1 144 142 143
123 2 141 142 143
124 5 142 144 145
125 1 149 147 146
126 1 149 147 148
127 2 146 147 148
128 5 147 149 150
129 1 154 152 151
130 1 154 152 153
131 2 151 152 153
132 5 152 154 155
133 1 159 157 156
134 1 159 157 158
135 2 156 157 158
136 5 157 159 160
137 1 164 162 161
138 1 164 162 163
139 2 161 162 163
140 5 162 164 165

Dihedrals

1 4 1 2 7 8
2 1 1 2 3 4
3 1 1 2 3 5
4 1 7 2 3 4
5 1 7 2 3 5
6 3 3 2 7 8
7 5 2 3 5 6
8 5 4 3 5 6
9 4 2 7 8 13
10 3 2 7 8 9
11 4 7 8 13 14
12 1 7 8 9 10
13 1 7 8 9 11
14 1 13 8 9 10
15 1 13 8 9 11
16 3 9 8 13 14
17 5 8 9 11 12
18 5 10 9 11 12
19 3 8 13 14 15
20 1 13 14 15 16
21 1 13 14 15 17
22 5 14 15 17 18
23 5 16 15 17 18
24 4 19 20 25 26
25 1 19 20 21 22
26 1 19 20 21 23
27 1 25 20 21 22
28 1 25 20 21 23
29 3 21 20 25 26
30 5 20 21 23 24
31 5 22 21 23 24
32 4 20 25 26 31
33 3 20 25 26 27
34 4 25 26 31 32
35 1 25 26 27 28
36 1 25 26 27 29
37 1 31 26 27 28
38 1 31 26 27 29
39 3 27 26 31 32
40 5 26 27 29 30
41 5 28 27 29 30
42 3 26 31 32 33
43 1 31 32 33 34
44 1 31 32 33 35
45 5 32 33 35 36
46 5 34 33 35 36
47 4 37 38 43 44
48 1 37 38 39 40
49 1 37 38 39 41
50 1 43 38 39 40
51 1 43 38 39 41
52 3 39 38 43 44
53 5 38 39 41 42
54 5 40 39 41 42
55 4 38 43 44 49
56 3 38 43 44 45
57 4 43 44 49 50
58 1 43 44 45 46
59 1 43 44 45 47
60 1 49 44 45 46
61 1 49 44 45 47
62 3 45 44 49 50
63 5 44 45 47 48
64 5 46 45 47 48
65 3 44 49 50 51
66 1 49 50 51 52
67 1 49 50 51 53
68 5 50 51 53 54
69 5 52 51 53 54
70 4 55 56 61 62
71 1 55 56 57 58
72 1 55 56 57 59
73 1 61 56 57 58
74 1 61 56 57 59
75 3 57 56 61 62
76 5 56 57 59 60
77 5 58 57 59 60
78 4 56 61 62 67
79 3 56 61 62 63
80 4 61 62 67 68
81 1 61 62 63 64
82 1 61 62 63 65
83 1 67 62 63 64
84 1 67 62 63 65
85 3 63 62 67 68
86 5 62 63 65 66
87 5 64 63 65 66
88 3 62 67 68 69
89 1 67 68 69 70
90 1 67 68 69 71
91 5 68 69 71 72
92 5 70 69 71 72
93 4 73 74 79 80
94 1 73 74 75 76
95 1 73 74 75 77
96 1 79 74 75 76
97 1 79 74 75 77
98 3 75 74 79 80
99 5 74 75 77 78
100 5 76 75 77 78
101 4 74 79 80 85
102 3 74 79 80 81
103 4 79 80 85 86
104 1 79 80 81 82
105 1 79 80 81 83
106 1 85 80 81 82
107 1 85 80 81 83
108 3 81 80 85 86
109 5 80 81 83 84
110 5 82 81 83 84
111 3 80 85 86 87
112 1 85 86 87 88
113 1 85 86 87 89
114 5 86 87 89 90
115 5 88 87 89 90
116 2 91 92 94 95
117 2 93 92 94 95
118 2 96 97 99 100
119 2 98 97 99 100
120 2 101 102 104 105
121 2 103 102 104 105
122 2 106 107 109 110
123 2 108 107 109 110
124 2 111 112 114 115
125 2 113 112 114 115
126 2 116 117 119 120
127 2 118 117 119 120
128 2 121 122 124 125
129 2 123 122 124 125
130 2 126 127 129 130
131 2 128 127 129 130
132 2 131 132 134 135
133 2 133 132 134 135
134 2 136 137 139 140
135 2 138 137 139 140
136 2 141 142 144 145
137 2 143 142 144 145
138 2 146 147 149 150
139 2 148 147 149 150
140 2 151 152 154 155
141 2 153 152 154 155
142 2 156 157 159 160
143 2 158 157 159 160
144 2 161 162 164 165
145 2 163 162 164 165

Impropers

1 1 1 3 2 7
2 2 2 4 3 5
3 1 7 9 8 13
4 2 8 10 9 11
5 2 14 16 15 17
6 1 19 21 20 25
7 2 20 22 21 23
8 1 25 27 26 31
9 2 26 28 27 29
10 2 32 34 33 35
11 1 37 39 38 43
12 2 38 40 39 41
13 1 43 45 44 49
14 2 44 46 45 47
15 2 50 52 51 53
16 1 55 57 56 61
17 2 56 58 57 59
18 1 61 63 62 67
19 2 62 64 63 65
20 2 68 70 69 71
21 1 73 75 74 79
22 2 74 76 75 77
23 1 79 81 80 85
24 2 80 82 81 83
25 2 86 88 87 89

