LAMMPS Description # full

165 atoms
145 bonds
140 angles
145 dihedrals
25 impropers

11 atom types
8 bond types
9 angle types
5 dihedral types
2 improper types

-2.21 17.16 xlo xhi # 0.00 19.37
-0.95 18.42 ylo yhi # 0.00 19.37
1.11 20.48 zlo zhi # 0.00 19.37

Masses

1 15.0350 # CH3 Isobutane C 84 #
2 14.0270 # CH2 n-Butane C 86 #
3 13.0190 # CH Isobutane C 88 #
4 12.0110 # C Carboxylic Acid C 133 #
5 15.9990 # =O Carboxylic Acid O 134 #
6 15.9990 # -O- Carboxylic Acid O 135 #
7 1.0080 # H Carboxylic Acid H 136 #
8 14.0070 # NR2 Tertiary Amide N 148 #
9 15.9990 # O Amide Carbonyl O 151 #
10 13.0190 # CH Formamide C 153 #
11 15.0350 # CH3 N,N-DiMe Amide C 156 #

Pair Coeffs

1 0.1600 3.9100
2 0.1180 3.9050
3 0.0800 3.8500
4 0.1050 3.7500
5 0.2100 2.9600
6 0.1700 3.0000
7 0.0000 0.0000
8 0.1700 3.2500
9 0.2100 2.9600
10 0.1150 3.8000
11 0.1700 3.8000

Bond Coeffs

1 570.0 1.229
2 337.0 1.449
3 490.0 1.335
4 317.0 1.522
5 553.0 0.945
6 450.0 1.364
7 260.0 1.526
8 260.0 1.526

Angle Coeffs

1 50.0 121.9
2 50.0 118.0
3 70.0 117.0
4 80.0 126.0
5 80.0 122.9
6 35.0 113.0
7 63.0 112.4
8 63.0 112.4
9 63.0 112.4

Dihedral Coeffs

1  0.0 0.0 0.0 0.0
2  0.0 5.0 0.0 0.0
3  0.0 0.0 4.0 0.0
4  0.0 0.0 4.0 0.0
5  0.0 1.8 0.0 0.0

Improper Coeffs

1 14.0 -1 3
2 10.5 -1 2

Atoms

1 1 1 0.0000 -4.0143 0.4662 10.3278
2 1 3 0.0800 -3.2064 1.6315 9.7639
3 1 4 0.5500 -1.6912 1.4915 9.7972
4 1 5 -0.5000 -1.0028 2.4873 9.5849
5 1 6 -0.5800 -1.0992 0.2903 10.0564
6 1 7 0.4500 -0.2567 0.2500 10.4825
7 1 2 0.0000 -3.7785 3.0356 9.9365
8 1 3 0.0800 -2.8071 4.1771 9.6502
9 1 4 0.5500 -2.6095 4.2230 8.1418
10 1 5 -0.5000 -3.3586 4.9225 7.4637
11 1 6 -0.5800 -1.6340 3.5209 7.4969
12 1 7 0.4500 -1.7928 3.0943 6.6687
13 1 2 0.0000 -3.4416 5.4891 10.1027
14 1 2 0.0800 -3.9607 5.3393 11.5299
15 1 4 0.5500 -3.4883 6.4738 12.4278
16 1 5 -0.5000 -3.8427 6.4636 13.6045
17 1 6 -0.5800 -2.6956 7.4885 11.9777
18 1 7 0.4500 -2.1676 7.4383 11.1956
19 2 1 0.0000 2.2761 12.5979 10.4438
20 2 3 0.0800 3.2696 11.5328 9.9885
21 2 4 0.5500 2.7981 10.0871 10.0528
22 2 5 -0.5000 3.1511 9.3125 9.1662
23 2 6 -0.5800 2.0002 9.6496 11.0688
24 2 7 0.4500 1.2892 9.0505 10.8998
25 2 2 0.0000 4.7508 11.7929 10.2474
26 2 3 0.0800 5.4325 10.8067 11.1916
27 2 4 0.5500 6.6557 11.5113 11.7605
28 2 5 -0.5000 7.0450 11.2128 12.8873
29 2 6 -0.5800 7.3496 12.4666 11.0776
30 2 7 0.4500 8.1816 12.7926 11.3850
31 2 2 0.0000 4.4773 10.4800 12.3359
32 2 2 0.0800 5.1436 9.4938 13.2909
33 2 4 0.5500 4.1612 8.9427 14.3144
34 2 5 -0.5000 3.0508 9.4645 14.3870
35 2 6 -0.5800 4.4662 7.9032 15.1432
36 2 7 0.4500 5.2517 7.8586 15.6666
37 3 1 0.0000 0.7859 7.1236 13.3983
38 3 3 0.0800 1.0345 5.8295 14.1678
39 3 4 0.5500 2.2770 5.7849 15.0458
40 3 5 -0.5000 2.7563 4.6903 15.3329
41 3 6 -0.5800 2.8546 6.9302 15.5097
42 3 7 0.4500 3.4312 6.9105 16.2581
43 3 2 0.0000 0.6016 4.5228 13.5093
44 3 3 0.0800 1.3736 4.1380 12.2505
45 3 4 0.5500 0.4827 3.1943 11.4554
46 3 5 -0.5000 -0.7224 3.4261 11.3899
47 3 6 -0.5800 0.9573 2.0933 10.8049
48 3 7 0.4500 1.7139 1.6197 11.1153
49 3 2 0.0000 1.6217 5.3948 11.4213
50 3 2 0.0800 0.9749 5.2361 10.0483
51 3 4 0.5500 1.9292 4.6128 9.0398
52 3 5 -0.5000 3.1055 4.9683 9.0629
53 3 6 -0.5800 1.5297 3.6852 8.1230
54 3 7 0.4500 2.0068 3.4856 7.3321
55 4 1 0.0000 9.5616 15.2716 17.4080
56 4 3 0.0800 9.4782 14.2288 16.2970
57 4 4 0.5500 8.4737 14.4945 15.1849
58 4 5 -0.5000 7.7043 15.4459 15.3010
59 4 6 -0.5800 8.4199 13.6995 14.0779
60 4 7 0.4500 8.2821 14.0742 13.2213
61 4 2 0.0000 9.7249 12.7716 16.6771
62 4 3 0.0800 8.6750 12.1480 17.5921
63 4 4 0.5500 8.9491 12.6641 18.9975
64 4 5 -0.5000 9.0915 13.8724 19.1713
65 4 6 -0.5800 9.0461 11.8468 20.0852
66 4 7 0.4500 9.8713 11.4738 20.3554
67 4 2 0.0000 7.2935 12.6258 17.1541
68 4 2 0.0800 6.3643 12.6773 18.3635
69 4 4 0.5500 7.0700 12.2441 19.6405
70 4 5 -0.5000 7.5376 11.1083 19.6841
71 4 6 -0.5800 7.2000 13.0620 20.7243
72 4 7 0.4500 7.1078 12.7713 21.6187
73 5 1 0.0000 15.0224 16.1684 18.2713
74 5 3 0.0800 14.9988 16.3991 16.7630
75 5 4 0.5500 16.2495 17.0083 16.1456
76 5 5 -0.5000 17.2181 17.2256 16.8701
77 5 6 -0.5800 16.3047 17.3108 14.8167
78 5 7 0.4500 15.5638 17.1466 14.2536
79 5 2 0.0000 13.6609 16.7635 16.1258
80 5 3 0.0800 13.2094 18.2062 16.3336
81 5 4 0.5500 12.1299 18.4863 15.2978
82 5 5 -0.5000 11.9367 17.6672 14.4021
83 5 6 -0.5800 11.3579 19.6107 15.3121
84 5 7 0.4500 10.7003 19.7543 15.9754
85 5 2 0.0000 12.5992 18.3356 17.7263
86 5 2 0.0800 11.2663 17.5939 17.7703
87 5 4 0.5500 11.0763 16.8452 19.0817
88 5 5 -0.5000 11.7799 15.8593 19.2900
89 5 6 -0.5800 10.1641 17.2254 20.0218
90 5 7 0.4500 9.3795 16.7386 20.2229
91 6 11 0.2850 4.3101 2.6540 15.0389
92 6 8 -0.5700 4.0346 2.8301 13.6273
93 6 11 0.2850 2.6435 2.8952 13.2269
94 6 10 0.5000 4.9688 2.9353 12.6795
95 6 9 -0.5000 4.5896 2.8913 11.5113
96 7 11 0.2850 15.7354 13.0824 9.1837
97 7 8 -0.5700 14.9076 12.2172 9.9996
98 7 11 0.2850 15.5486 11.5406 11.1090
99 7 10 0.5000 13.6051 12.0039 9.7989
100 7 9 -0.5000 13.0774 11.1051 10.4501
101 8 11 0.2850 11.4118 0.7657 13.4283
102 8 8 -0.5700 10.9572 -0.2708 12.5234
103 8 11 0.2850 11.1801 -0.0586 11.1075
104 8 10 0.5000 10.3520 -1.3982 12.9041
105 8 9 -0.5000 9.1589 -1.5133 12.6324
106 9 11 0.2850 1.9567 16.2569 2.5483
107 9 8 -0.5700 1.4074 15.0996 3.2256
108 9 11 0.2850 0.9994 15.2713 4.6053
109 9 10 0.5000 1.2537 13.8965 2.6680
110 9 9 -0.5000 0.1858 13.6732 2.1020
111 10 11 0.2850 15.3667 -1.0982 1.4642
112 10 8 -0.5700 14.2937 -0.1755 1.1527
113 10 11 0.2850 14.0588 0.1194 -0.2464
114 10 10 0.5000 13.5141 0.4157 2.0609
115 10 9 -0.5000 14.0083 0.6389 3.1638
116 11 11 0.2850 3.7583 0.4594 -0.9139
117 11 8 -0.5700 2.5202 1.2111 -0.8721
118 11 11 0.2850 1.3269 0.4998 -0.4600
119 11 10 0.5000 2.4068 2.5039 -1.1852
120 11 9 -0.5000 3.3799 3.0411 -1.7096
121 12 11 0.2850 9.9359 6.5477 2.9910
122 12 8 -0.5700 11.1636 7.2929 2.7985
123 12 11 0.2850 11.7698 7.8860 3.9734
124 12 10 0.5000 11.7681 7.4678 1.6211
125 12 9 -0.5000 12.9161 7.0427 1.5117
126 13 11 0.2850 13.7034 3.2338 6.4884
127 13 8 -0.5700 14.2203 3.1680 7.8405
128 13 11 0.2850 14.3846 1.8518 8.4237
129 13 10 0.5000 14.5524 4.2301 8.5781
130 13 9 -0.5000 14.0945 4.2867 9.7172
131 14 11 0.2850 5.4908 14.8324 -2.2223
132 14 8 -0.5700 5.9612 15.2538 -0.9181
133 14 11 0.2850 5.9236 16.6728 -0.6269
134 14 10 0.5000 6.4228 14.4290 0.0247
135 14 9 -0.5000 7.5014 14.7144 0.5401
136 15 11 0.2850 16.4124 12.3525 1.1658
137 15 8 -0.5700 15.3415 13.3087 1.3624
138 15 11 0.2850 15.2640 13.9601 2.6544
139 15 10 0.5000 14.4297 13.6265 0.4406
140 15 9 -0.5000 14.1264 12.7555 -0.3716
141 16 11 0.2850 6.7566 4.0584 15.7312
142 16 8 -0.5700 6.9564 4.7391 16.9947
143 16 11 0.2850 6.1036 5.8761 17.2768
144 16 10 0.5000 7.8658 4.3915 17.9081
145 16 9 -0.5000 8.4626 5.3014 18.4795
146 17 11 0.2850 9.2414 14.8076 7.1402
147 17 8 -0.5700 9.4341 14.0535 5.9180
148 17 11 0.2850 10.5949 14.3797 5.1143
149 17 10 0.5000 8.6205 13.0869 5.4868
150 17 9 -0.5000 7.5888 13.4351 4.9170
151 18 11 0.2850 18.4288 7.0866 17.2344
152 18 8 -0.5700 18.3456 8.4330 16.7055
153 18 11 0.2850 18.8799 8.6572 15.3774
154 18 10 0.5000 17.8142 9.4715 17.3546
155 18 9 -0.5000 18.2743 10.5835 17.1052
156 19 11 0.2850 15.6032 5.1536 5.1296
157 19 8 -0.5700 15.8863 6.5741 5.1708
158 19 11 0.2850 16.5654 7.0804 6.3464
159 19 10 0.5000 15.5658 7.4397 4.2063
160 19 9 -0.5000 16.0332 8.5731 4.2923
161 20 11 0.2850 12.8500 4.5433 12.9014
162 20 8 -0.5700 12.1221 5.7635 13.1858
163 20 11 0.2850 11.8846 6.6668 12.0780
164 20 10 0.5000 11.6598 6.1079 14.3899
165 20 9 -0.5000 11.9264 7.2388 14.7904

Bonds

1 8 1 2
2 4 2 3
3 1 3 4
4 6 3 5
5 5 5 6
6 8 7 8
7 4 8 9
8 1 9 10
9 6 9 11
10 5 11 12
11 7 13 14
12 4 14 15
13 1 15 16
14 6 15 17
15 5 17 18
16 8 2 7
17 8 8 13
18 8 19 20
19 4 20 21
20 1 21 22
21 6 21 23
22 5 23 24
23 8 25 26
24 4 26 27
25 1 27 28
26 6 27 29
27 5 29 30
28 7 31 32
29 4 32 33
30 1 33 34
31 6 33 35
32 5 35 36
33 8 20 25
34 8 26 31
35 8 37 38
36 4 38 39
37 1 39 40
38 6 39 41
39 5 41 42
40 8 43 44
41 4 44 45
42 1 45 46
43 6 45 47
44 5 47 48
45 7 49 50
46 4 50 51
47 1 51 52
48 6 51 53
49 5 53 54
50 8 38 43
51 8 44 49
52 8 55 56
53 4 56 57
54 1 57 58
55 6 57 59
56 5 59 60
57 8 61 62
58 4 62 63
59 1 63 64
60 6 63 65
61 5 65 66
62 7 67 68
63 4 68 69
64 1 69 70
65 6 69 71
66 5 71 72
67 8 56 61
68 8 62 67
69 8 73 74
70 4 74 75
71 1 75 76
72 6 75 77
73 5 77 78
74 8 79 80
75 4 80 81
76 1 81 82
77 6 81 83
78 5 83 84
79 7 85 86
80 4 86 87
81 1 87 88
82 6 87 89
83 5 89 90
84 8 74 79
85 8 80 85
86 2 91 92
87 2 92 93
88 3 92 94
89 1 94 95
90 2 96 97
91 2 97 98
92 3 97 99
93 1 99 100
94 2 101 102
95 2 102 103
96 3 102 104
97 1 104 105
98 2 106 107
99 2 107 108
100 3 107 109
101 1 109 110
102 2 111 112
103 2 112 113
104 3 112 114
105 1 114 115
106 2 116 117
107 2 117 118
108 3 117 119
109 1 119 120
110 2 121 122
111 2 122 123
112 3 122 124
113 1 124 125
114 2 126 127
115 2 127 128
116 3 127 129
117 1 129 130
118 2 131 132
119 2 132 133
120 3 132 134
121 1 134 135
122 2 136 137
123 2 137 138
124 3 137 139
125 1 139 140
126 2 141 142
127 2 142 143
128 3 142 144
129 1 144 145
130 2 146 147
131 2 147 148
132 3 147 149
133 1 149 150
134 2 151 152
135 2 152 153
136 3 152 154
137 1 154 155
138 2 156 157
139 2 157 158
140 3 157 159
141 1 159 160
142 2 161 162
143 2 162 163
144 3 162 164
145 1 164 165

Angles

1 9 1 2 7
2 9 7 2 3
3 3 2 3 5
4 4 4 3 5
5 6 3 5 6
6 8 8 7 2
7 9 7 8 13
8 9 13 8 9
9 3 8 9 11
10 4 10 9 11
11 6 9 11 12
12 7 14 13 8
13 7 13 14 15
14 3 14 15 17
15 4 16 15 17
16 6 15 17 18
17 9 19 20 25
18 9 25 20 21
19 3 20 21 23
20 4 22 21 23
21 6 21 23 24
22 8 26 25 20
23 9 25 26 31
24 9 31 26 27
25 3 26 27 29
26 4 28 27 29
27 6 27 29 30
28 7 32 31 26
29 7 31 32 33
30 3 32 33 35
31 4 34 33 35
32 6 33 35 36
33 9 37 38 43
34 9 43 38 39
35 3 38 39 41
36 4 40 39 41
37 6 39 41 42
38 8 44 43 38
39 9 43 44 49
40 9 49 44 45
41 3 44 45 47
42 4 46 45 47
43 6 45 47 48
44 7 50 49 44
45 7 49 50 51
46 3 50 51 53
47 4 52 51 53
48 6 51 53 54
49 9 55 56 61
50 9 61 56 57
51 3 56 57 59
52 4 58 57 59
53 6 57 59 60
54 8 62 61 56
55 9 61 62 67
56 9 67 62 63
57 3 62 63 65
58 4 64 63 65
59 6 63 65 66
60 7 68 67 62
61 7 67 68 69
62 3 68 69 71
63 4 70 69 71
64 6 69 71 72
65 9 73 74 79
66 9 79 74 75
67 3 74 75 77
68 4 76 75 77
69 6 75 77 78
70 8 80 79 74
71 9 79 80 85
72 9 85 80 81
73 3 80 81 83
74 4 82 81 83
75 6 81 83 84
76 7 86 85 80
77 7 85 86 87
78 3 86 87 89
79 4 88 87 89
80 6 87 89 90
81 1 94 92 91
82 1 94 92 93
83 2 91 92 93
84 5 92 94 95
85 1 99 97 96
86 1 99 97 98
87 2 96 97 98
88 5 97 99 100
89 1 104 102 101
90 1 104 102 103
91 2 101 102 103
92 5 102 104 105
93 1 109 107 106
94 1 109 107 108
95 2 106 107 108
96 5 107 109 110
97 1 114 112 111
98 1 114 112 113
99 2 111 112 113
100 5 112 114 115
101 1 119 117 116
102 1 119 117 118
103 2 116 117 118
104 5 117 119 120
105 1 124 122 121
106 1 124 122 123
107 2 121 122 123
108 5 122 124 125
109 1 129 127 126
110 1 129 127 128
111 2 126 127 128
112 5 127 129 130
113 1 134 132 131
114 1 134 132 133
115 2 131 132 133
116 5 132 134 135
117 1 139 137 136
118 1 139 137 138
119 2 136 137 138
120 5 137 139 140
121 1 144 142 141
122 1 144 142 143
123 2 141 142 143
124 5 142 144 145
125 1 149 147 146
126 1 149 147 148
127 2 146 147 148
128 5 147 149 150
129 1 154 152 151
130 1 154 152 153
131 2 151 152 153
132 5 152 154 155
133 1 159 157 156
134 1 159 157 158
135 2 156 157 158
136 5 157 159 160
137 1 164 162 161
138 1 164 162 163
139 2 161 162 163
140 5 162 164 165

Dihedrals

1 4 1 2 7 8
2 1 1 2 3 4
3 1 1 2 3 5
4 1 7 2 3 4
5 1 7 2 3 5
6 3 3 2 7 8
7 5 2 3 5 6
8 5 4 3 5 6
9 4 2 7 8 13
10 3 2 7 8 9
11 4 7 8 13 14
12 1 7 8 9 10
13 1 7 8 9 11
14 1 13 8 9 10
15 1 13 8 9 11
16 3 9 8 13 14
17 5 8 9 11 12
18 5 10 9 11 12
19 3 8 13 14 15
20 1 13 14 15 16
21 1 13 14 15 17
22 5 14 15 17 18
23 5 16 15 17 18
24 4 19 20 25 26
25 1 19 20 21 22
26 1 19 20 21 23
27 1 25 20 21 22
28 1 25 20 21 23
29 3 21 20 25 26
30 5 20 21 23 24
31 5 22 21 23 24
32 4 20 25 26 31
33 3 20 25 26 27
34 4 25 26 31 32
35 1 25 26 27 28
36 1 25 26 27 29
37 1 31 26 27 28
38 1 31 26 27 29
39 3 27 26 31 32
40 5 26 27 29 30
41 5 28 27 29 30
42 3 26 31 32 33
43 1 31 32 33 34
44 1 31 32 33 35
45 5 32 33 35 36
46 5 34 33 35 36
47 4 37 38 43 44
48 1 37 38 39 40
49 1 37 38 39 41
50 1 43 38 39 40
51 1 43 38 39 41
52 3 39 38 43 44
53 5 38 39 41 42
54 5 40 39 41 42
55 4 38 43 44 49
56 3 38 43 44 45
57 4 43 44 49 50
58 1 43 44 45 46
59 1 43 44 45 47
60 1 49 44 45 46
61 1 49 44 45 47
62 3 45 44 49 50
63 5 44 45 47 48
64 5 46 45 47 48
65 3 44 49 50 51
66 1 49 50 51 52
67 1 49 50 51 53
68 5 50 51 53 54
69 5 52 51 53 54
70 4 55 56 61 62
71 1 55 56 57 58
72 1 55 56 57 59
73 1 61 56 57 58
74 1 61 56 57 59
75 3 57 56 61 62
76 5 56 57 59 60
77 5 58 57 59 60
78 4 56 61 62 67
79 3 56 61 62 63
80 4 61 62 67 68
81 1 61 62 63 64
82 1 61 62 63 65
83 1 67 62 63 64
84 1 67 62 63 65
85 3 63 62 67 68
86 5 62 63 65 66
87 5 64 63 65 66
88 3 62 67 68 69
89 1 67 68 69 70
90 1 67 68 69 71
91 5 68 69 71 72
92 5 70 69 71 72
93 4 73 74 79 80
94 1 73 74 75 76
95 1 73 74 75 77
96 1 79 74 75 76
97 1 79 74 75 77
98 3 75 74 79 80
99 5 74 75 77 78
100 5 76 75 77 78
101 4 74 79 80 85
102 3 74 79 80 81
103 4 79 80 85 86
104 1 79 80 81 82
105 1 79 80 81 83
106 1 85 80 81 82
107 1 85 80 81 83
108 3 81 80 85 86
109 5 80 81 83 84
110 5 82 81 83 84
111 3 80 85 86 87
112 1 85 86 87 88
113 1 85 86 87 89
114 5 86 87 89 90
115 5 88 87 89 90
116 2 91 92 94 95
117 2 93 92 94 95
118 2 96 97 99 100
119 2 98 97 99 100
120 2 101 102 104 105
121 2 103 102 104 105
122 2 106 107 109 110
123 2 108 107 109 110
124 2 111 112 114 115
125 2 113 112 114 115
126 2 116 117 119 120
127 2 118 117 119 120
128 2 121 122 124 125
129 2 123 122 124 125
130 2 126 127 129 130
131 2 128 127 129 130
132 2 131 132 134 135
133 2 133 132 134 135
134 2 136 137 139 140
135 2 138 137 139 140
136 2 141 142 144 145
137 2 143 142 144 145
138 2 146 147 149 150
139 2 148 147 149 150
140 2 151 152 154 155
141 2 153 152 154 155
142 2 156 157 159 160
143 2 158 157 159 160
144 2 161 162 164 165
145 2 163 162 164 165

Impropers

1 1 1 3 2 7
2 2 2 4 3 5
3 1 7 9 8 13
4 2 8 10 9 11
5 2 14 16 15 17
6 1 19 21 20 25
7 2 20 22 21 23
8 1 25 27 26 31
9 2 26 28 27 29
10 2 32 34 33 35
11 1 37 39 38 43
12 2 38 40 39 41
13 1 43 45 44 49
14 2 44 46 45 47
15 2 50 52 51 53
16 1 55 57 56 61
17 2 56 58 57 59
18 1 61 63 62 67
19 2 62 64 63 65
20 2 68 70 69 71
21 1 73 75 74 79
22 2 74 76 75 77
23 1 79 81 80 85
24 2 80 82 81 83
25 2 86 88 87 89

