LAMMPS Description # full

10 atoms
9 bonds
11 angles
10 dihedrals
2 impropers

7 atom types
6 bond types
4 angle types
3 dihedral types
2 improper types

-7.12 19.28 xlo xhi # 0.00 7.79
-6.99 19.41 ylo yhi # 0.00 7.79
-15.12 11.28 zlo zhi # 0.00 7.79

Masses

1 15.035 # CH3 (beta) Ala C 7
2 15.035 # CH3 Isobutane C 84
3 13.019 # CH Isobutane C 88
4 12.011 # C Neopentane C 90
5 12.011 # C Ketone Carbonyl C 127
6 15.999 # O Ketone Carbonyl O 128
7 14.027 # CH2 Diethyl Ketone C 130

Pair Coeffs

1 0.1600 3.9100
2 0.1600 3.9100
3 0.0800 3.8500
4 0.0500 3.8000
5 0.1050 3.7500
6 0.2100 2.9600
7 0.1180 3.9050

Bond Coeffs

1  570.0 1.229
2  317.0 1.522
3  317.0 1.522
4  260.0 1.526
5  260.0 1.526
6  260.0 1.526

Angle Coeffs

1 80.0 120.4
2 63.0 112.4
3 40.0 109.5
4 63.0 112.4

Dihedral Coeffs

1  0.0 0.0 0.0 0.0
2  0.0 0.0 0.0 0.0
3  0.0 0.0 4.0 0.0

Improper Coeffs

1 10.5 -1 2
2 14.0 -1 3

Atoms

1 1 2 0.0000 4.694 4.879 0.351
2 1 3 0.0000 4.706 6.246 -0.326
3 1 2 0.0000 4.349 7.249 0.767
4 1 7 0.0620 6.110 6.454 -0.887
5 1 5 0.3000 6.362 5.741 -2.209
6 1 6 -0.4240 6.104 4.552 -2.387
7 1 4 0.0620 6.961 6.561 -3.343
8 1 1 0.0000 8.413 6.907 -3.026
9 1 1 0.0000 6.974 5.657 -4.573
10 1 1 0.0000 6.163 7.838 -3.588

Bonds

1 6 1 2
2 6 2 3
3 5 2 4
4 2 4 5
5 1 5 6
6 3 5 7
7 4 7 8
8 4 7 9
9 4 7 10

Angles

1 4 1 2 3
2 4 3 2 4
3 2 2 4 5
4 1 7 5 6
5 1 6 5 4
6 3 8 7 9
7 3 8 7 10
8 3 8 7 5
9 3 9 7 10
10 3 9 7 5
11 3 10 7 5

Dihedrals

1 3 1 2 4 5
2 3 3 2 4 5
3 2 2 4 5 7
4 1 2 4 5 6
5 1 6 5 7 8
6 1 6 5 7 9
7 1 6 5 7 10
8 2 4 5 7 8
9 2 4 5 7 9
10 2 4 5 7 10

Impropers

1 2 1 3 2 4
2 1 4 6 5 7

