LAMMPS Description # full

10 atoms
9 bonds
11 angles
10 dihedrals
2 impropers

7 atom types
6 bond types
4 angle types
3 dihedral types
2 improper types

0 7.7882 xlo xhi
0 7.7882 ylo yhi
0 7.7882 zlo zhi

Masses

1 15.0350 # CH3 (beta) Ala C 7 #
2 15.0350 # CH3 Isobutane C 84 #
3 13.0190 # CH Isobutane C 88 #
4 12.0110 # C Neopentane C 90 #
5 12.0110 # C Ketone Carbonyl C 127 #
6 15.9990 # O Ketone Carbonyl O 128 #
7 14.0270 # CH2 Diethyl Ketone C 130 #

Pair Coeffs

1 0.1600 3.9100
2 0.1600 3.9100
3 0.0800 3.8500
4 0.0500 3.8000
5 0.1050 3.7500
6 0.2100 2.9600
7 0.1180 3.9050

Bond Coeffs

1 570.0000 1.2290
2 317.0000 1.5220
3 317.0000 1.5220
4 260.0000 1.5260
5 260.0000 1.5260
6 260.0000 1.5260

Angle Coeffs

1 80.0000 120.4000
2 63.0000 112.4000
3 40.0000 109.5000
4 63.0000 112.4000

Dihedral Coeffs

1 0.0000 0.0000 0.0000 0.0000
2 0.0000 0.0000 0.0000 0.0000
3 0.0000 0.0000 4.0000 0.0000

Improper Coeffs

1 10.5000 -1 2
2 14.0000 -1 3

Atoms

1 1 2 0.0000 6.7195 1.4956 6.9707
2 1 3 0.0000 6.1678 1.7883 5.5784
3 1 2 0.0000 6.9207 0.8558 4.6339
4 1 7 0.0620 4.6689 1.5055 5.6246
5 1 5 0.3000 3.8222 2.7087 6.0145
6 1 6 -0.4240 4.1555 3.5060 6.8884
7 1 4 0.0620 2.5087 2.9088 5.2722
8 1 1 0.0000 2.7694 3.5555 3.9148
9 1 1 0.0000 1.9433 1.5171 5.0033
10 1 1 0.0000 1.5384 3.7665 6.0794

Bonds

1 6 1 2
2 6 2 3
3 5 2 4
4 2 4 5
5 1 5 6
6 3 5 7
7 4 7 8
8 4 7 9
9 4 7 10

Angles

1 4 1 2 4
2 4 3 2 4
3 2 2 4 5
4 1 7 5 6
5 1 6 5 4
6 3 8 7 9
7 3 8 7 10
8 3 8 7 5
9 3 9 7 10
10 3 9 7 5
11 3 10 7 5

Dihedrals

1 3 1 2 4 5
2 3 3 2 4 5
3 2 2 4 5 7
4 1 2 4 5 6
5 1 6 5 7 8
6 1 6 5 7 9
7 1 6 5 7 10
8 2 4 5 7 8
9 2 4 5 7 9
10 2 4 5 7 10

Impropers

1 2 1 3 2 4
2 1 4 6 5 7

