LAMMPS Description # full

3 atoms
2 bonds
1 angles
0 dihedrals
0 impropers

2 atom types
1 bond types
1 angle types
0 dihedral types
0 improper types

-1.58 3.11 xlo xhi # 0.00 3.91
-2.46 2.24 ylo yhi # 0.00 3.91
-0.67 4.02 zlo zhi # 0.00 3.91

Masses

1 15.9990 # O Water (SPCE) O 214 #
2 1.0080 # H Water (SPCE) H 215 #

Pair Coeffs

1 0.1554 3.1656
2 0.0000 0.0000

Bond Coeffs

1 527.2 1.0

Angle Coeffs

1 37.95 109.47

Atoms

1 1 1 -0.8476 0.5930 -0.4184 1.7375
2 1 2 0.4238 0.1193 0.4617 1.7065
3 1 2 0.4238 1.5804 -0.3780 1.5847

Bonds

1 1 1 2
2 1 1 3

Angles

1 1 2 1 3

