LAMMPS (7 Feb 2024 - Development - patch_7Feb2024-18-gc6a8f1fe58)
units real
atom_style full
bond_style harmonic
angle_style harmonic
dihedral_style opls
improper_style cvff
pair_style lj/cut 11.0
pair_modify mix geometric
special_bonds lj/coul 0 0 0.5
read_data polymer_builder.data
Reading data file ...
  orthogonal box = (-2.31 -2.78 -1.65) to (29.2 29.31 30.34)
  1 by 1 by 1 MPI processor grid
  reading atoms ...
  400 atoms
  scanning bonds ...
  1 = max bonds/atom
  reading bonds ...
  200 bonds
Finding 1-2 1-3 1-4 neighbors ...
  special bond factors lj:    0        0        0.5     
  special bond factors coul:  0        0        0.5     
     1 = max # of 1-2 neighbors
     0 = max # of 1-3 neighbors
     0 = max # of 1-4 neighbors
     1 = max # of special neighbors
  special bonds CPU = 0.000 seconds
  read_data CPU = 0.007 seconds
dump 1 all custom 1000 dump.custom.gz id xu yu zu
dump_modify 1 sort id
min_style fire
minimize 1.0e-6 1.0e-8 10000 100000
Generated 0 of 0 mixed pair_coeff terms from geometric mixing rule
Neighbor list info ...
  update: every = 1 steps, delay = 0 steps, check = yes
  max neighbors/atom: 2000, page size: 100000
  master list distance cutoff = 13
  ghost atom cutoff = 13
  binsize = 6.5, bins = 5 5 5
  1 neighbor lists, perpetual/occasional/extra = 1 0 0
  (1) pair lj/cut, perpetual
      attributes: half, newton on
      pair build: half/bin/newton
      stencil: half/bin/3d
      bin: standard
  Parameters for fire:
    dmax  delaystep dtgrow dtshrink alpha0 alphashrink tmax tmin   integrator   halfstepback   abcfire  
     0.1     20      1.1     0.5     0.25     0.99      10  0.02 eulerimplicit      yes          no     
Per MPI rank memory allocation (min/avg/max) = 6.233 | 6.233 | 6.233 Mbytes
   Step          Temp          E_pair         E_mol          TotEng         Press     
         0   0              21310.638      0.0083913255   21310.647      191355.78    
      8798   0.022086607   -639.58571      0.10260346    -639.45683     -108.03252    
Loop time of 4.24826 on 1 procs for 8798 steps with 400 atoms

99.1% CPU use with 1 MPI tasks x no OpenMP threads

Minimization stats:
  Stopping criterion = energy tolerance
  Energy initial, next-to-last, final = 
      21310.6467438819  -639.483465800958    -639.4831018165
  Force two-norm initial, final = 21613.357 0.91663178
  Force max component initial, final = 4815.4743 0.16944802
  Final line search alpha, max atom move = 0 0
  Iterations, force evaluations = 8798 9260

MPI task timing breakdown:
Section |  min time  |  avg time  |  max time  |%varavg| %total
---------------------------------------------------------------
Pair    | 4.0664     | 4.0664     | 4.0664     |   0.0 | 95.72
Bond    | 0.028521   | 0.028521   | 0.028521   |   0.0 |  0.67
Neigh   | 0.013709   | 0.013709   | 0.013709   |   0.0 |  0.32
Comm    | 0.062761   | 0.062761   | 0.062761   |   0.0 |  1.48
Output  | 0.0022177  | 0.0022177  | 0.0022177  |   0.0 |  0.05
Modify  | 0          | 0          | 0          |   0.0 |  0.00
Other   |            | 0.07465    |            |       |  1.76

Nlocal:            400 ave         400 max         400 min
Histogram: 1 0 0 0 0 0 0 0 0 0
Nghost:           1781 ave        1781 max        1781 min
Histogram: 1 0 0 0 0 0 0 0 0 0
Neighs:          27997 ave       27997 max       27997 min
Histogram: 1 0 0 0 0 0 0 0 0 0

Total # of neighbors = 27997
Ave neighs/atom = 69.9925
Ave special neighs/atom = 1
Neighbor list builds = 16
Dangerous builds = 0
timestep 1
thermo_modify flush yes
thermo 1000
velocity all create 10 482748
fix 1a all temp/berendsen 10 10 100
fix 1b all nve
run 5000
Generated 0 of 0 mixed pair_coeff terms from geometric mixing rule
Per MPI rank memory allocation (min/avg/max) = 7.512 | 7.512 | 7.512 Mbytes
   Step          Temp          E_pair         E_mol          TotEng         Press     
      8798   10            -639.58571      0.10260346    -627.58967     -91.261968    
      9000   9.086365      -632.01719      0.13436644    -621.07602     -47.084251    
     10000   10.679176     -639.57486      0.98062607    -625.89303     -53.13206     
     11000   10.390539     -650.64569      1.1243524     -637.16342     -93.686925    
     12000   10.163642     -656.51853      0.4841543     -643.94632     -94.112766    
     13000   10.278237     -662.82235      0.2307991     -650.3672      -65.378511    
     13798   10.676483     -666.90949      0.46013168    -653.75136     -102.98953    
Loop time of 1.65676 on 1 procs for 5000 steps with 400 atoms

Performance: 260.750 ns/day, 0.092 hours/ns, 3017.945 timesteps/s, 1.207 Matom-step/s
99.1% CPU use with 1 MPI tasks x no OpenMP threads

MPI task timing breakdown:
Section |  min time  |  avg time  |  max time  |%varavg| %total
---------------------------------------------------------------
Pair    | 1.5686     | 1.5686     | 1.5686     |   0.0 | 94.68
Bond    | 0.01152    | 0.01152    | 0.01152    |   0.0 |  0.70
Neigh   | 0.011599   | 0.011599   | 0.011599   |   0.0 |  0.70
Comm    | 0.031607   | 0.031607   | 0.031607   |   0.0 |  1.91
Output  | 0.001616   | 0.001616   | 0.001616   |   0.0 |  0.10
Modify  | 0.022293   | 0.022293   | 0.022293   |   0.0 |  1.35
Other   |            | 0.009489   |            |       |  0.57

Nlocal:            400 ave         400 max         400 min
Histogram: 1 0 0 0 0 0 0 0 0 0
Nghost:           1692 ave        1692 max        1692 min
Histogram: 1 0 0 0 0 0 0 0 0 0
Neighs:          29635 ave       29635 max       29635 min
Histogram: 1 0 0 0 0 0 0 0 0 0

Total # of neighbors = 29635
Ave neighs/atom = 74.0875
Ave special neighs/atom = 1
Neighbor list builds = 14
Dangerous builds = 0
unfix 1b
unfix 1a

fix 2a all press/berendsen iso 1 1 10000
fix 2b all temp/berendsen 10 273.15 100
fix 2c all nve
run 500000
Generated 0 of 0 mixed pair_coeff terms from geometric mixing rule
Per MPI rank memory allocation (min/avg/max) = 7.512 | 7.512 | 7.512 Mbytes
   Step          Temp          E_pair         E_mol          TotEng         Press          Volume    
     13798   10.676483     -666.90949      0.46013168    -653.75136     -102.98953      32346.877    
     14000   10.0984       -667.35792      0.43869437    -654.90876     -3.9369439      31996.121    
     15000   10.955692     -671.64911      0.45183368    -658.1672      -11.416861      29981.583    
     16000   11.323657     -677.31807      0.30348927    -663.54687     -10.108207      27092.132    
     17000   13.675038     -695.392        0.23626055    -678.89143     -15.761922      23420.764    
     18000   13.746111     -720.84154      0.23005898    -704.26263     -12.781958      19999.69     
     19000   14.554309     -744.54757      0.20248306    -727.03502     -9.0332374      17928.408    
     20000   15.102731     -768.84974      0.18495703    -750.70246     -5.8689441      16548.802    
     21000   14.809081     -781.72506      0.20653976    -763.90544     -2.1376848      15828.053    
     22000   15.661082     -797.78188      0.20095177    -778.95453     -2.6042425      15292.712    
     23000   15.86654      -814.68169      0.2139569     -795.59697     -1.5092759      14880.594    
     24000   16.576757     -831.97371      0.22382947    -812.03443     -2.5052107      14578.246    
     25000   15.354705     -841.71222      0.23139077    -823.21881      2.9842509      14456.857    
     26000   16.723249     -845.75483      0.23088404    -825.63427     -0.24629039     14397.658    
     27000   16.436964     -846.41762      0.22970771    -826.63872      3.5780725      14396.932    
     28000   17.043516     -849.80934      0.25890972    -829.27984      1.2452894      14355.637    
     29000   18.221333     -851.47965      0.24433113    -829.5639      -1.5956007      14332.503    
     30000   18.966112     -852.49075      0.24650964    -829.68702      0.52367177     14316.304    
     31000   19.116976     -852.31355      0.25813058    -829.31878     -0.12831779     14323.922    
     32000   19.972979     -852.30121      0.24115734    -828.30533      1.2850795      14314.123    
     33000   20.393436     -853.81385      0.23438148    -829.32467     -0.34950792     14305.253    
     34000   20.385145     -851.11326      0.24000724    -826.62832      2.1119057      14330.969    
     35000   20.690674     -850.59304      0.23301858    -825.75171     -1.3818537      14333.957    
     36000   21.401772     -850.58878      0.23361073    -824.90112     -1.2543801      14334.397    
     37000   23.353525     -852.43249      0.24375732    -824.41338      0.95997718     14323.931    
     38000   22.718383     -850.29663      0.24628805    -823.03039      2.1058942      14343.369    
     39000   23.400656     -849.45955      0.25520767    -821.37293     -1.0476585      14355.769    
     40000   22.559491     -845.92671      0.237968      -818.85776      2.5411965      14388.654    
     41000   24.916302     -850.49209      0.23157447    -820.62648      2.3844033      14331.288    
     42000   24.273881     -846.53775      0.25340922    -817.41437     -0.79150564     14389.148    
     43000   26.311434     -847.87183      0.23647134    -816.34203     -1.4069203      14377.827    
     44000   25.871775     -846.10836      0.23492469    -815.10301      4.662792       14386.881    
     45000   25.77743      -843.66355      0.25543698    -812.7499       0.13716129     14425.068    
     46000   27.228272     -844.70875      0.24524503    -812.07974      1.9789721      14408.2      
     47000   26.649864     -842.2266       0.22951688    -810.30125      5.2614637      14430.975    
     48000   28.086244     -843.73693      0.22946377    -810.10328      8.1168304      14413.481    
     49000   29.060916     -843.28971      0.22403316    -808.50227      4.0768958      14421.52     
     50000   30.47091      -843.48179      0.2403973     -807.00102      0.21985308     14418.946    
     51000   29.002028     -839.77078      0.26890777    -805.0085       3.2434176      14475.757    
     52000   29.921192     -838.12705      0.23337438    -802.30711      2.8105783      14483.287    
     53000   32.10199      -841.10095      0.23688449    -802.68378      1.645789       14452.108    
     54000   30.132069     -835.88492      0.25545069    -799.7921       0.88785582     14505.379    
     55000   31.405431     -837.39718      0.24300746    -799.80234      3.4236389      14489.53     
     56000   31.809374     -838.05263      0.25295357    -799.96741      2.7370122      14479.507    
     57000   31.469914     -833.9613       0.25906078    -796.27372     -1.3126507      14540.246    
     58000   32.296897     -835.60397      0.25408646    -796.93779      3.2038478      14519.153    
     59000   34.896956     -832.29911      0.25782577    -790.53683      0.48043523     14562.776    
     60000   34.239344     -831.83417      0.27178494    -790.84006     -2.0221717      14562.49     
     61000   35.712746     -833.80054      0.2462747     -791.07956     -0.82542876     14535.975    
     62000   34.922881     -830.2257       0.27578947    -788.41462      0.54248449     14586.046    
     63000   37.273134     -831.4173       0.26609002    -786.82066     -1.9177981      14566.305    
     64000   37.530227     -833.98561      0.26926559    -789.08003      2.0427187      14536.307    
     65000   36.560759     -828.30078      0.26354176    -784.55395      0.93502204     14605.557    
     66000   39.081274     -832.61889      0.26187449    -785.87597     -0.99883115     14546.828    
     67000   36.92201      -827.94224      0.2666545     -783.76265      0.51870002     14606.615    
     68000   37.762064     -828.75406      0.28155769    -783.56045      2.8330569      14603.665    
     69000   38.779145     -824.28232      0.26667609    -777.89393      0.60449628     14655.179    
     70000   39.915372     -824.48603      0.26410695    -776.74885     -0.10396269     14639.167    
     71000   40.435844     -825.46813      0.27971189    -777.09632      6.3491802      14642.961    
     72000   40.938385     -823.90846      0.25927245    -774.9594      -0.012254434    14659.482    
     73000   40.345491     -821.98679      0.29332447    -773.70883     -2.2344594      14683.578    
     74000   41.866544     -821.6718       0.27693686    -771.60118      1.0965102      14687.799    
     75000   42.743685     -820.85782      0.25017895    -769.77073     -4.1418146      14689.868    
     76000   42.510859     -820.30721      0.29636502    -769.45084      3.7271127      14696.973    
     77000   45.20904      -823.58593      0.28698366    -769.52989      0.41135632     14671.025    
     78000   41.451506     -816.54392      0.28725692    -766.95659      2.4689382      14751.988    
     79000   45.29617      -819.75598      0.27970757    -765.60358     -5.7327459      14709.092    
     80000   47.761847     -819.73673      0.25222329    -762.67928     -4.5818915      14712.635    
     81000   43.255139     -813.44418      0.26854436    -761.73043      7.5699478      14791.297    
     82000   46.246822     -814.22233      0.28042478    -758.93856      0.27132624     14785.175    
     83000   46.816707     -816.67943      0.28479958    -760.7135       1.3571634      14756.332    
     84000   47.26127      -812.59798      0.28021271    -756.1079      -6.6656474      14799.747    
     85000   47.040454     -809.51063      0.26107634    -753.30231     -0.44797295     14827.999    
     86000   47.853134     -813.72813      0.24752173    -756.56681      0.54333292     14781.418    
     87000   47.969504     -808.01402      0.25622006    -750.7056       6.9105622      14847.986    
     88000   50.705549     -809.00745      0.30241604    -748.39873     -1.053502       14844.681    
     89000   48.111387     -806.01564      0.27481706    -748.51987      9.4572306      14873.822    
     90000   49.331827     -805.26064      0.275258      -746.31291      0.55190904     14890.424    
     91000   51.508707     -805.80157      0.27047216    -744.26957      2.7184742      14890.56     
     92000   50.686742     -803.34199      0.27998969    -742.77807      1.3154561      14914.888    
     93000   49.824765     -804.97633      0.28355448    -745.43403      5.5065366      14880.232    
     94000   50.513994     -803.29496      0.26477485    -742.95171      1.4475027      14919.031    
     95000   50.849548     -803.33936      0.28120886    -742.58059      3.991001       14920.822    
     96000   53.378781     -802.2911       0.27256765    -738.53284      0.57299576     14933.972    
     97000   52.641647     -799.90475      0.27901678    -737.01675      3.6491552      14950.129    
     98000   55.857738     -801.3571       0.26130843    -734.66177     -5.2475713      14939.237    
     99000   53.367806     -794.49012      0.28881386    -730.72867      3.3493423      15036.971    
    100000   55.26858      -795.76655      0.28892199    -729.74431     -2.2199864      15022.277    
    101000   56.227709     -801.71927      0.26981885    -734.57541      5.3265385      14929.487    
    102000   54.370877     -796.77754      0.27139727    -731.84051      11.106165      14994.781    
    103000   55.235716     -788.86858      0.29264362    -722.88171      4.7969088      15112.489    
    104000   56.635716     -787.40644      0.28850494    -719.75863     -4.793129       15129.415    
    105000   57.207311     -794.25238      0.28161377    -725.93164      8.1293201      15039.403    
    106000   56.678214     -787.85642      0.30201121    -720.14456      0.74487504     15118.466    
    107000   57.856119     -789.12928      0.2813505     -720.03715      4.521532       15102.711    
    108000   58.977756     -790.55568      0.25876539    -720.15212      3.4649436      15079.14     
    109000   60.269897     -786.57546      0.28576735    -714.60809     -7.8558648      15139.853    
    110000   61.333829     -783.15637      0.29015963    -709.91924      2.8647325      15193.201    
    111000   60.968708     -783.21486      0.27219963    -710.42994     -0.57959341     15167.103    
    112000   60.162194     -783.41445      0.27332508    -711.58763      4.5445163      15165.033    
    113000   60.670664     -783.79263      0.27234238    -711.36205      11.669413      15163.611    
    114000   65.813201     -787.3204       0.26329649    -708.78262     -9.0891538      15133.961    
    115000   65.7767       -786.96892      0.26613616    -708.47171     -1.6367455      15126.906    
    116000   61.289047     -778.84068      0.27987934    -705.66709      6.6662668      15229.617    
    117000   64.176565     -776.49111      0.30907425    -699.85407     -5.2221053      15275.761    
    118000   63.318345     -774.15679      0.30610591    -698.54344      3.0190491      15306.122    
    119000   66.741295     -773.65555      0.2693431     -694.0079      -0.14544644     15305.708    
    120000   66.807908     -775.05464      0.26480619    -695.3323       8.6880492      15266.363    
    121000   64.778442     -769.85359      0.30544133    -692.50435      15.830641      15355.293    
    122000   64.746524     -769.3547       0.25159817    -692.09726      7.7480503      15358.34     
    123000   68.901768     -765.70534      0.28339359    -683.4741      -9.1795949      15433.061    
    124000   70.134955     -776.89287      0.29307619    -693.18526     -0.61556756     15268.496    
    125000   65.812053     -760.94096      0.28865728    -682.37918     -0.58325625     15499.516    
    126000   69.533717     -765.84336      0.26528395    -682.87862      0.98076851     15419.297    
    127000   70.973601     -764.08063      0.23935408    -679.42931      8.8597554      15424.243    
    128000   68.770145     -759.25905      0.30781858    -677.15992      7.0610951      15523.755    
    129000   71.810158     -758.41208      0.25184502    -672.75331      7.8234132      15522.266    
    130000   71.248148     -755.48881      0.30528458    -670.44503     -0.50316584     15579.649    
    131000   70.746093     -758.48462      0.2843314     -674.05891     -0.96867614     15539.531    
    132000   71.31632      -757.08785      0.2906967     -671.97757      9.4467451      15538.256    
    133000   73.639918     -758.1417       0.26792147    -670.29064     -9.6678249      15528.781    
    134000   74.516999     -755.91887      0.23729456    -667.05529     -0.23972898     15562.642    
    135000   74.567953     -750.76092      0.27678102    -661.79725     -4.0561738      15634.935    
    136000   75.523582     -755.26635      0.24483749    -665.19805      1.7146982      15580.334    
    137000   74.506848     -752.54179      0.30231112    -663.62526     -0.36098117     15617.324    
    138000   75.93178      -752.28248      0.26709828    -661.70644      6.6188314      15607.571    
    139000   74.30367      -743.30904      0.26282615    -654.67365      5.3668465      15732.009    
    140000   76.453884     -743.70927      0.27143203    -652.50793      9.7817121      15739.94     
    141000   78.585162     -754.52843      0.28812033    -660.77558     -0.43773257     15583.705    
    142000   76.177927     -751.33194      0.26723006    -660.46301      6.3415064      15620.08     
    143000   78.364442     -746.87482      0.28433116    -653.38827     -3.6794084      15698.389    
    144000   80.064256     -748.14666      0.27090094    -652.65188     -4.1356192      15681.801    
    145000   78.850688     -745.43732      0.30642544    -651.35036     -0.7121253      15725.744    
    146000   79.219175     -738.46408      0.24066538    -644.00462     -9.7331469      15819.357    
    147000   80.736809     -745.05112      0.26251053    -648.76483     -2.3315928      15731.444    
    148000   78.746263     -729.84746      0.3004676     -635.89066     -4.1915957      15979.302    
    149000   76.867089     -727.23135      0.30214911    -635.50785      7.3499035      16004.49     
    150000   81.690187     -736.5835       0.31868966    -639.10714      4.2463928      15886.997    
    151000   82.620019     -742.98605      0.23918773    -644.4833      -1.0192928      15741.325    
    152000   84.407962     -737.94118      0.26799095    -637.28315      7.4387576      15838.197    
    153000   84.926674     -733.77836      0.25812385    -632.51328     -4.1144787      15904.982    
    154000   82.444504     -724.96054      0.24087297    -626.66486     -4.5247868      15998.933    
    155000   83.470929     -722.89774      0.28748422    -623.33467      12.481413      16066.732    
    156000   84.611489     -725.75899      0.26921819    -624.85768     -5.9577704      16045.193    
    157000   86.89511      -726.98311      0.26865162    -623.36635     -14.77011       16002.317    
    158000   86.324959     -733.92775      0.24990478    -631.00784      8.5483109      15873.178    
    159000   85.795041     -725.96902      0.29308108    -623.63619     -3.8221082      15989.537    
    160000   89.070132     -725.13086      0.26846286    -618.92744     -2.5304667      16032.365    
    161000   88.599299     -732.1605       0.25903233    -626.5265       6.5531693      15944.376    
    162000   87.510404     -725.62448      0.24053131    -621.30405     -6.3378135      16015.012    
    163000   88.376631     -720.04099      0.27819381    -614.65265      5.2123854      16131.486    
    164000   91.111032     -721.90434      0.29471849    -613.24733     -7.4328423      16098.902    
    165000   92.157972     -733.17704      0.28894931    -623.28063     -7.2921732      15920.514    
    166000   91.089245     -720.18787      0.26922464    -611.58227      1.1504573      16120.568    
    167000   92.142418     -720.08992      0.25850806    -610.24245      1.6832514      16104.974    
    168000   89.382002     -724.79554      0.24140123    -618.24826     -0.23244981     16014.617    
    169000   92.558186     -721.64198      0.26218527    -611.29634     -6.0380149      16106.429    
    170000   94.693494     -720.70045      0.25505771    -607.82233     -4.087036       16082.921    
    171000   92.469399     -711.00167      0.25866432    -600.76516     -4.2843398      16247.085    
    172000   91.936946     -703.58081      0.26173543    -593.97449      18.030408      16359.799    
    173000   93.871041     -710.79518      0.28917055    -598.86112      0.55384693     16229.182    
    174000   93.52783      -704.92329      0.24337825    -593.44322     -13.764872      16366.474    
    175000   92.633661     -706.35844      0.28430905    -595.90091     -2.8490711      16307.379    
    176000   96.155611     -712.15931      0.30082648    -597.49646     -4.7745848      16269.989    
    177000   94.821272     -712.85024      0.22436075    -599.85085      7.0902841      16234.939    
    178000   99.612828     -709.89157      0.24189562    -591.17584      0.79642442     16265.488    
    179000   97.947326     -711.77212      0.29469172    -594.98444     -1.371717       16252.966    
    180000   96.262076     -709.87603      0.28776191    -595.09962      0.67624799     16269.548    
    181000   97.356769     -698.26971      0.26992266    -582.20918     -5.6915807      16460.774    
    182000   100.03128     -703.77028      0.22756465    -584.57119     -5.541924       16364.401    
    183000   99.560856     -703.87723      0.26459       -585.20061      4.6336916      16356.379    
    184000   102.91188     -703.7559       0.27169309    -581.08666     -13.831239      16404.391    
    185000   100.13112     -694.95155      0.2758334     -575.58546      7.5250253      16502.483    
    186000   103.13153     -698.35284      0.22457769    -575.46947      9.2672196      16474.978    
    187000   98.3842       -689.4705       0.28428056    -572.17364      18.68282       16639.832    
    188000   102.56784     -687.92919      0.24750102    -565.69332     -10.942755      16678.68     
    189000   103.44124     -692.24618      0.27171005    -568.94732      9.7940411      16521.527    
    190000   106.62354     -700.82734      0.29505251    -573.7203       1.8268445      16448.307    
    191000   103.44832     -693.91714      0.27132715    -570.61026      7.3257721      16565.16     
    192000   103.13822     -695.90332      0.29902631    -572.93755      1.3720402      16498.484    
    193000   101.74016     -686.00047      0.23709819    -564.7594       16.071925      16656.206    
    194000   106.92526     -694.27342      0.26904417    -566.83354     -12.22285       16574.096    
    195000   106.58668     -683.49417      0.25449457    -556.47154     -12.226518      16726.406    
    196000   108.95461     -699.48463      0.22713544    -569.67307     -1.5619866      16436.845    
    197000   103.92241     -682.2907       0.29582388    -558.39546      9.0238174      16736.781    
    198000   109.9262      -688.74921      0.30084841    -557.70839      5.5611483      16652.361    
    199000   106.39109     -690.4114       0.29503289    -563.58085      15.69713       16608.973    
    200000   109.16862     -684.30213      0.32964323    -554.13353     -6.3266002      16707.527    
    201000   111.12766     -693.85788      0.30197956    -561.38696     -12.174268      16584.03     
    202000   106.30133     -674.80018      0.26911743    -548.10229      7.6289383      16873.316    
    203000   107.86915     -674.69503      0.26297951    -546.13861      23.372785      16852.16     
    204000   111.86834     -672.95128      0.30173869    -539.59969     -23.934097      16986.84     
    205000   108.61088     -668.03374      0.25538713    -538.60275      25.308248      17009.073    
    206000   116.87481     -678.56475      0.29267636    -539.26782      7.5776329      16823.017    
    207000   113.09294     -678.73825      0.26839591    -543.96353     -13.869291      16834.766    
    208000   109.32894     -666.41167      0.2470279     -536.13501      6.4470946      17002.126    
    209000   116.20324     -674.97866      0.28346942    -536.48966     -19.241778      16961.844    
    210000   110.43938     -659.20381      0.26449712    -527.58899      30.12026       17153.49     
    211000   115.07345     -673.32093      0.32253789    -536.13656      17.956293      16939.603    
    212000   116.39398     -669.25099      0.3131866     -530.50541      4.8293385      17065.006    
    213000   111.68146     -665.672        0.26331283    -532.5811      -3.3105049      16985.2      
    214000   116.03973     -664.35307      0.24216886    -526.09984      12.504855      17115.574    
    215000   116.7322      -656.48402      0.26301502    -517.38637     -24.339541      17294.281    
    216000   118.5784      -660.09375      0.23403915    -518.8293       8.1204168      17173.33     
    217000   114.08051     -655.14371      0.33562246    -519.1272       13.769066      17319.012    
    218000   119.35954     -667.96739      0.32647012    -525.68146      12.345412      17070.781    
    219000   117.97381     -667.70146      0.29800988    -527.0921       14.44612       17062.502    
    220000   118.54924     -656.35383      0.31631596    -515.04178      7.9512522      17285.657    
    221000   120.04844     -658.78537      0.24239576    -515.76418     -4.6188816      17155.711    
    222000   124.59158     -665.10917      0.29194046    -516.63509     -3.6605354      17115.27     
    223000   120.49104     -649.22966      0.29067614    -505.63379     -33.778176      17379.839    
    224000   120.25655     -650.89265      0.2952751     -507.57106      31.833483      17341.479    
    225000   122.17        -660.31224      0.23553862    -514.77464      20.192562      17125.147    
    226000   118.86002     -644.75377      0.27727449    -503.11113      10.721743      17490.788    
    227000   123.37477     -655.7586       0.27464574    -508.749       -1.3306455      17201.643    
    228000   120.15976     -641.65618      0.2584854     -498.4865       17.253227      17547.262    
    229000   121.27198     -650.64624      0.31215242    -506.10008      0.47615251     17423.113    
    230000   126.04415     -648.21447      0.26441914    -498.04029     -0.75262059     17444.316    
    231000   127.46014     -653.45463      0.37318752    -501.48759     -7.2282601      17360.205    
    232000   124.4548      -640.43217      0.31654521    -492.09615     -14.898922      17565.28     
    233000   123.07577     -641.79105      0.31251534    -495.0992      -2.7887445      17601.861    
    234000   126.55189     -649.26762      0.28531961    -498.46867     -5.4702761      17407.852    
    235000   122.77955     -638.59563      0.27039204    -492.29822     -14.275204      17598.109    
    236000   127.78956     -631.28425      0.2960811     -479.00252     -2.8302846      17733.02     
    237000   128.69607     -634.85399      0.30189237    -481.48831     -15.046285      17646.099    
    238000   128.06902     -637.15984      0.27188747    -484.56993      8.1966379      17603.688    
    239000   128.45226     -633.08203      0.27998709    -480.02822     -0.84572919     17788.985    
    240000   129.8502      -640.25042      0.31321057    -485.50076      13.575146      17591.8      
    241000   126.59891     -628.24162      0.28861358    -477.38345     -0.76261471     17897.11     
    242000   132.82242     -627.35171      0.29267261    -469.08759     -4.5809246      17828.573    
    243000   132.38411     -635.30907      0.33552848    -477.52339      16.160389      17630.761    
    244000   131.67844     -638.54068      0.30241025    -481.62741      5.0376108      17627.718    
    245000   134.50023     -641.03512      0.30134256    -480.76685     -52.363235      17583.192    
    246000   133.12188     -631.45753      0.27536637    -472.85456     -17.377658      17795.208    
    247000   129.45785     -625.53262      0.28393856    -471.27886      20.671386      17840.145    
    248000   134.89238     -627.86237      0.32080776    -467.10823      20.944315      17861.776    
    249000   134.73227     -634.19115      0.28406061    -473.66418     -10.170596      17699.11     
    250000   138.86007     -636.4685       0.31248371    -471.00374      0.18375009     17651.765    
    251000   132.18042     -622.47071      0.36527538    -464.89754      6.9559501      17970.883    
    252000   141.40066     -630.89141      0.37630694    -462.34119     -24.408305      17866.232    
    253000   134.90613     -630.7944       0.29893384    -470.04578      7.2394383      17761.796    
    254000   132.31284     -605.93717      0.30617906    -448.26561      22.557641      18249.018    
    255000   133.48341     -610.09147      0.32760224    -451.00628      10.432422      18185.921    
    256000   134.15611     -608.77513      0.28235551    -448.93512     -1.4583853      18270.931    
    257000   132.38136     -620.32263      0.26968977    -462.60607      41.451752      18008.387    
    258000   134.71567     -606.50966      0.286496      -445.99999      2.4459911      18246.897    
    259000   138.48948     -604.94851      0.30515407    -439.93183      7.362729       18460.503    
    260000   142.30101     -616.32203      0.34370879    -446.73358     -6.4861538      18137.414    
    261000   135.44667     -614.76301      0.36082977    -453.30961     -8.3186869      18143.14     
    262000   137.69662     -603.67401      0.29878176    -439.60668      12.478727      18379.653    
    263000   135.75428     -608.86009      0.32554817    -447.07611      23.82965       18213.52     
    264000   146.2521      -610.70432      0.36165276    -436.39872     -11.138141      18247.892    
    265000   143.94372     -609.09326      0.29645419    -437.59832     -1.4700025      18264.059    
    266000   141.0523      -601.04993      0.3533159     -432.93702     -7.2703007      18465.83     
    267000   141.05969     -604.28848      0.44860456    -436.07149      13.920991      18358.262    
    268000   146.14205     -597.82873      0.33206523    -423.68361     -26.101439      18482.279    
    269000   142.47256     -600.8308       0.3578696     -431.02416      28.683221      18432.801    
    270000   142.95721     -598.25589      0.40063378    -427.83007      1.6388176      18481.175    
    271000   143.64157     -590.8037       0.29903074    -419.66554      4.3491394      18652.771    
    272000   144.76536     -605.54419      0.29365306    -433.07484     -6.4327804      18361.439    
    273000   146.47337     -598.41612      0.32517492    -423.88384      27.380099      18463.867    
    274000   150.22467     -612.09555      0.33074226    -433.09611      9.7220699      18123.158    
    275000   146.1601      -593.92517      0.3503128     -419.74033      24.001564      18571.415    
    276000   154.44968     -601.08245      0.30610898    -417.08265     -45.133908      18492.958    
    277000   145.33804     -577.92251      0.32176117    -404.74394      0.85980909     18948.467    
    278000   149.32942     -594.89383      0.38388951    -416.90601     -9.0858588      18538.469    
    279000   149.35436     -580.84245      0.38380821    -402.82505      2.1442238      18938.684    
    280000   150.64911     -580.05757      0.36261708    -400.52145      1.6406065      18958.852    
    281000   153.63851     -587.39967      0.42027329    -404.25048      3.4780857      18694.808    
    282000   151.47515     -584.52549      0.27869777    -404.09085     -5.9915459      18932.306    
    283000   148.82743     -588.32681      0.43564233    -410.88427      23.166537      18774.957    
    284000   156.20435     -601.66378      0.33282142    -415.55038     -25.492903      18440.829    
    285000   151.59264     -565.91128      0.38099421    -385.23461     -16.926694      19420.603    
    286000   149.92559     -571.60782      0.40578394    -392.88905      28.675154      19124.751    
    287000   156.61142     -594.3818       0.47248523    -407.64459     -19.67506       18651.382    
    288000   153.64738     -578.9036       0.33466759    -395.82946      12.808471      19003.326    
    289000   154.46994     -578.35015      0.35465811    -394.27772      24.780275      18918.543    
    290000   150.60265     -575.0384       0.50770268    -395.41245      13.984616      19085.582    
    291000   152.77261     -581.37569      0.3319809     -399.34465      6.6186357      18926.268    
    292000   155.84181     -561.39387      0.41691547    -375.62755     -17.564701      19595.018    
    293000   163.18159     -578.8758       0.36260608    -384.43428     -26.433291      18917.798    
    294000   157.62039     -559.52542      0.35914455    -371.70154      4.6399057      19476.431    
    295000   158.84327     -570.36336      0.40111007    -381.04308      10.575475      19201.253    
    296000   160.72062     -583.4309       0.4014355     -391.87749     -2.6730424      18902.819    
    297000   157.93989     -565.67096      0.34532868    -377.48089     -21.463978      19241.205    
    298000   163.76902     -571.36204      0.37329395    -376.21117     -5.4602765      19314.447    
    299000   155.34681     -561.26927      0.34984629    -376.15875     -6.008909       19540.328    
    300000   164.3043      -567.4212       0.44376954    -371.56323      11.012465      19313.046    
    301000   160.37727     -553.99067      0.45732141    -362.78973     -9.9248468      19694.885    
    302000   164.21361     -571.48867      0.40182568    -375.7805      -14.542426      19220.196    
    303000   165.25912     -566.39345      0.39132958    -369.4523      -24.406641      19338.644    
    304000   161.76862     -548.95089      0.37760182    -356.17488      23.012092      19866.838    
    305000   158.60838     -540.26006      0.51832394    -351.10193      38.420206      19929.334    
    306000   162.91912     -555.07204      0.40075876    -360.90453      9.8243203      19701.03     
    307000   162.95048     -566.13542      0.43201993    -371.89935      12.62805       19264.229    
    308000   165.54565     -573.62197      0.45089953    -376.28048     -32.224432      19139.945    
    309000   158.6593      -564.08515      0.43926286    -374.94553      42.097212      19290.253    
    310000   167.50166     -561.07659      0.45997062    -361.39966     -11.308398      19495.511    
    311000   167.74418     -549.86005      0.44827626    -349.90638     -2.1228242      19857.072    
    312000   166.33192     -557.35025      0.42302411    -359.10148      14.465748      19613.639    
    313000   161.90833     -541.60056      0.47234398    -348.56364     -9.2507875      20072.871    
    314000   165.32593     -564.40573      0.38155181    -367.3949       31.41081       19299.644    
    315000   171.8347      -556.83821      0.35975366    -352.10802     -16.192894      19487.75     
    316000   173.20467     -557.8796       0.41200111    -351.4678      -13.792418      19704.108    
    317000   170.03924     -551.49453      0.45394138    -348.80558     -22.740867      19883.493    
    318000   172.39758     -524.78245      0.38460403    -319.35795      7.0416761      20530.861    
    319000   173.48945     -566.53734      0.50542639    -359.69341      1.1031655      19386.161    
    320000   166.46483     -534.26575      0.48636085    -335.79557      9.4599816      20237.938    
    321000   173.36137     -545.57034      0.4151491     -338.96902     -26.198604      19819.687    
    322000   172.08864     -541.93699      0.45768692    -336.80685     -27.758268      20003.384    
    323000   169.98514     -528.0686       0.40078002    -325.49715      28.081902      20430.092    
    324000   167.77465     -515.5263       0.51694071    -315.46772      26.64083       20914.349    
    325000   176.50294     -538.00036      0.45581616    -327.62196     -6.5085744      20117.634    
    326000   177.15075     -553.71649      0.48560513    -342.53785     -3.2817571      19884.086    
    327000   173.19032     -529.49158      0.41965414    -323.08919      6.1002959      20634.094    
    328000   174.2617      -528.16116      0.49496359    -320.40923      3.5528835      20478.097    
    329000   175.9141      -517.69679      0.56968729    -307.90486      28.779798      20923.81     
    330000   176.83954     -529.75952      0.52491421    -318.9117       4.1060455      20645.421    
    331000   180.56498     -544.76488      0.46966674    -329.54148      5.6525264      20127.014    
    332000   175.91641     -518.07048      0.50834451    -308.33715      4.061817       20604.8      
    333000   181.08557     -532.12701      0.50843161    -316.24568     -33.16752       20467.198    
    334000   178.41902     -514.78306      0.54037017    -302.04123      1.6211115      20836.289    
    335000   175.17847     -507.48876      0.50786607    -298.63356      3.3656624      20977.268    
    336000   179.55776     -544.83221      0.5780555     -330.69835      12.240533      19902.984    
    337000   179.21016     -519.96323      0.46446939    -306.35638      5.7507743      20676.657    
    338000   176.11933     -519.36285      0.48833608    -309.40818      0.75907427     20959.464    
    339000   182.52012     -521.47464      0.54275796    -303.85282     -17.65654       20848.099    
    340000   179.11532     -517.3409       0.54055005    -303.77076     -7.1615505      20785.066    
    341000   182.57511     -547.67099      0.41537502    -330.11114      0.32646004     19938.376    
    342000   184.09482     -527.5797       0.51625662    -308.11152     -19.679602      20306.576    
    343000   189.64638     -520.87569      0.49786296    -294.82319     -17.324554      20840.712    
    344000   181.84656     -504.85896      0.57521575    -288.00577      5.2172547      21245.136    
    345000   182.54511     -516.3716       0.58387307    -298.67893      10.357915      20925.937    
    346000   176.48796     -485.69931      0.5416856     -275.25286      73.692481      21904.834    
    347000   188.27616     -513.50624      0.62605741    -288.95522     -1.7202161      20964.928    
    348000   183.89662     -504.96325      0.58765191    -285.65939      19.026928      21434.452    
    349000   190.1761      -514.82458      0.50512151    -288.1348       4.7186631      20875.378    
    350000   187.54251     -514.06045      0.59860906    -290.40944      27.101973      20989.572    
    351000   190.87894     -513.62068      0.56098984    -286.03913     -26.840132      20994.103    
    352000   183.84353     -472.85701      0.65423626    -253.54971      22.932253      22504.772    
    353000   193.11149     -471.52845      0.61215693    -241.24045     -36.262409      22892.312    
    354000   186.48117     -493.71719      0.68045048    -271.24662      24.168298      21747.828    
    355000   185.92538     -507.6836       0.63719944    -285.91732      11.063349      21119.571    
    356000   190.31875     -479.55196      0.63252769    -252.56512      13.094133      22271.205    
    357000   194.45657     -495.85939      0.61184227    -263.97195     -19.535137      21849.802    
    358000   187.44001     -471.46749      0.63960791    -247.89738      26.827932      22667.349    
    359000   192.76685     -461.17446      0.58245693    -231.32606     -30.359542      23214.167    
    360000   196.17827     -486.00973      0.7586631     -251.92777     -39.402564      22310.4      
    361000   193.81265     -506.30542      0.65436935    -275.1413      -9.3321354      21261.587    
    362000   192.25842     -472.37008      0.56027794    -243.14856     -21.15015       22636.188    
    363000   187.6049      -467.8059       0.75134994    -243.92794      48.16133       22898.111    
    364000   190.83809     -473.93688      0.62967298    -246.33522      0.15058286     22626.08     
    365000   197.22469     -457.3564       0.58145394    -222.2071      -49.178738      23660.85     
    366000   195.67158     -483.80823      0.74194876    -250.34561     -4.2166278      22088.608    
    367000   195.56746     -488.73326      0.7572371     -255.37919      14.86863       21780.028    
    368000   194.62246     -474.18009      0.67904274    -242.02815      23.810761      22119.638    
    369000   199.0376      -492.48539      0.71715099    -255.04423      4.3274952      21696.763    
    370000   193.38261     -466.24473      0.70915185    -235.53729      32.852422      22494.339    
    371000   198.96114     -477.44036      0.77701842    -240.03026     -4.9764822      22252.982    
    372000   202.86103     -473.43974      0.90180266    -231.26655     -23.454593      22470.882    
    373000   200.3444      -463.52241      0.87752369    -224.36663     -16.160585      22985.276    
    374000   196.42365     -432.50309      0.88934476    -197.99861      35.277813      24131.272    
    375000   201.17275     -465.9087       0.7984565     -225.8468       24.50339       23167.204    
    376000   198.82775     -441.70746      0.66629659    -204.56674      3.8986097      24007.632    
    377000   199.89921     -454.22597      0.92647126    -215.55073      22.134385      23365.365    
    378000   201.83765     -469.68607      0.82740573    -228.80442      7.4584544      22430.026    
    379000   201.83383     -478.66637      0.63647103    -237.98021      25.873963      22151.069    
    380000   202.10408     -488.58544      0.84320814    -247.37112      9.1861258      21804.215    
    381000   200.75691     -462.92663      0.90672737    -223.25103      19.009609      22774.061    
    382000   208.93761     -476.20107      0.73039089    -226.97215     -20.325129      22507.075    
    383000   203.682       -456.35216      0.89638193    -213.20797     -15.066096      23298.964    
    384000   203.99715     -451.26888      0.91311659    -207.73314     -15.266882      23809.871    
    385000   207.51526     -461.26105      0.68847708    -213.76572     -4.6449329      23342.031    
    386000   205.10627     -445.94663      0.94626789    -201.05861     -10.115862      23817.971    
    387000   206.77015     -443.24384      1.2282932     -196.09487      22.763217      24279.713    
    388000   211.37581     -427.32213      0.79929947    -175.12445     -48.71196       25056.064    
    389000   208.48796     -436.14026      0.94348685    -187.23303     -23.439465      24186.04     
    390000   211.86852     -455.63414      1.1142981     -202.53546     -5.3468775      23376.044    
    391000   212.86783     -443.37277      0.83973472    -189.36013     -33.261131      24077.919    
    392000   209.46143     -431.03905      0.99930282    -180.91822     -37.051008      24392.174    
    393000   209.09298     -460.38474      1.052345      -210.64909     -5.5240891      23052.875    
    394000   206.77757     -452.18062      1.0166407     -205.23448      22.221882      23421.224    
    395000   210.8643      -448.56594      0.93039686    -196.84552      19.575232      23755.488    
    396000   212.36292     -439.98383      1.1369059     -186.27453     -21.053927      24313.142    
    397000   209.86644     -453.71163      0.9194336     -203.18897     -34.82362       23338.403    
    398000   215.19299     -472.04504      1.0913807     -215.01534     -56.87478       22604.586    
    399000   215.43981     -461.28603      1.0916982     -203.96246      11.474559      22929.749    
    400000   206.62021     -443.11501      1.0439115     -196.32875      33.167243      23761.179    
    401000   210.45434     -437.71729      1.1079553     -186.3069       16.447869      23988.539    
    402000   211.06944     -442.05542      1.0903832     -189.93103      4.9980264      23783.238    
    403000   212.43998     -450.8956       1.0994719     -197.13208      56.81081       23128.31     
    404000   216.10205     -436.02742      1.1999311     -177.80799      34.693612      24096.262    
    405000   217.03894     -421.72836      0.95931497    -162.63525     -11.863952      24863.063    
    406000   219.36062     -427.61433      1.2268009     -165.49247      16.445594      24652.561    
    407000   214.37883     -405.87691      1.2711069     -149.63579      11.082408      25812.852    
    408000   213.53232     -388.86762      1.0703732     -133.83403     -2.130443       26733.375    
    409000   217.11397     -395.59558      1.3277046     -136.04485      30.284345      27215.401    
    410000   214.75689     -382.47109      1.0999529     -125.95149      9.4587904      27840.159    
    411000   222.73577     -385.50504      1.2292924     -119.36648     -29.454042      27509.629    
    412000   221.8737      -409.81648      1.4233407     -144.50917     -43.245252      26139.305    
    413000   217.61768     -352.58739      1.2099426     -92.555334      1.8393689      29869.901    
    414000   224.28782     -356.84132      1.2221        -88.864024     -8.2228491      29774.617    
    415000   222.53764     -350.30441      1.5635373     -84.067239     -26.157083      31239.047    
    416000   225.24308     -355.13816      1.39728       -85.84955      -19.060756      31933.608    
    417000   218.38644     -343.09642      1.3950019     -81.964986     -6.4691023      32173.255    
    418000   221.15321     -317.9193       1.4697923     -53.422439     -4.4513302      34812.622    
    419000   219.28558     -288.77112      1.4189223     -26.546383      22.718301      37653.601    
    420000   223.54988     -302.80207      1.4790645     -35.445475      15.819108      35428.706    
    421000   220.42486     -301.98454      1.7877799     -38.035947      11.936205      35356.306    
    422000   228.51479     -338.60693      1.5127294     -65.31168      -30.723077      32723.234    
    423000   219.39026     -289.99115      1.4762626     -27.584572      42.725745      37536.843    
    424000   225.29586     -301.32465      1.6284128     -31.742129      22.890088      37233.747    
    425000   230.02486     -301.36102      1.7164271     -26.066082     -37.5713        37004.547    
    426000   223.61011     -252.06537      1.5533234      15.437124      2.7807073      43657.74     
    427000   228.52305     -228.55474      1.9946197      45.232213      14.623807      49875.69     
    428000   224.75678     -233.27556      1.9534002      35.990801      28.440814      50826.55     
    429000   227.77842     -225.66696      1.7846874      47.024443      1.1502877      52821.19     
    430000   228.67453     -229.19666      1.9212952      44.697138      42.918202      55757.223    
    431000   233.83388     -193.75402      2.0176688      86.372381     -4.9894506      70070.858    
    432000   230.28374     -167.60622      2.4480104      108.72819      33.93459       87867.857    
    433000   231.06311     -149.19906      2.4422454      128.05653      34.262401      111849.43    
    434000   232.44225     -137.37429      2.3166681      141.39599      23.325407      131400.5     
    435000   233.65659     -117.06851      2.4491746      163.27855      22.681774      164515.31    
    436000   231.87369     -102.77604      2.9973205      175.99868      26.889321      190719.47    
    437000   232.06733     -84.361005      2.8792761      194.52597      18.049913      224583.65    
    438000   233.32793     -75.727331      2.6996024      204.47927      11.42831       260635.12    
    439000   235.03194     -69.690982      3.2520227      213.09468      11.765855      295756.81    
    440000   235.90306     -61.550748      3.5531773      222.57213      9.4138806      334108.68    
    441000   236.75473     -57.713765      3.2461051      227.11497      12.467531      370024.86    
    442000   236.57565     -54.854157      3.3818309      229.89732      8.8310721      407731.8     
    443000   236.49665     -51.185466      3.5866702      233.67689      9.0069116      444902.25    
    444000   236.9494      -40.798387      3.571584       244.58735      7.8880927      481851.25    
    445000   235.92075     -39.200041      3.3298802      244.72058      10.815379      522154.74    
    446000   237.5124      -35.951857      3.9795511      250.51146      7.5414709      564597.53    
    447000   236.99225     -30.369325      3.8209892      255.31679      7.4740692      606105.64    
    448000   240.92481     -33.082296      3.2737736      256.73377      7.1649296      650328.88    
    449000   238.2989      -27.712831      3.76277        259.46911      9.0131172      693830.77    
    450000   239.76675     -25.920229      4.4201367      263.66486      6.3168744      738474.05    
    451000   240.49264     -23.943208      4.0177319      266.10281      5.7509551      784774.09    
    452000   241.03965     -20.604327      3.7636825      269.83822      5.9273384      828169.03    
    453000   240.74819     -18.936866      3.807879       271.20324      6.4366838      876742.83    
    454000   242.59131     -17.71844       3.8261878      274.63207      6.262838       922654.21    
    455000   242.87079     -18.111706      4.1868064      274.93182      4.8158356      969885.04    
    456000   242.44103     -14.161422      4.2900678      278.47424      5.4432984      1016449.5    
    457000   244.0302      -16.823175      4.3966445      277.80913      4.7113869      1064050.9    
    458000   244.2298      -14.696483      3.9196734      279.69625      4.7231705      1108551.1    
    459000   244.72703     -14.677674      4.0790546      280.46581      4.3353981      1153752.2    
    460000   244.85163     -11.453981      4.3375499      284.09619      4.2677057      1199563.3    
    461000   245.20754     -12.632415      4.2575224      283.26103      5.1666212      1244878.6    
    462000   246.15027     -12.497557      4.2628756      284.52247      4.7455057      1291054.5    
    463000   246.82528     -10.749681      4.5703685      287.38066      4.1518551      1335880.5    
    464000   246.4648      -10.741993      4.4355365      286.82478      4.8700502      1382310.3    
    465000   247.58967     -9.1562625      3.9968775      289.30971      3.9797633      1428348.4    
    466000   247.99293     -9.7191295      4.6657872      289.89536      3.9504474      1471377.7    
    467000   248.3824      -9.9527661      4.679492       290.13864      3.9308112      1516141.7    
    468000   249.53228     -9.550048       4.4121268      291.6416       4.1358234      1558999.3    
    469000   250.41362     -7.6455817      4.2683733      294.45053      3.9845319      1604804.6    
    470000   250.52418     -6.0837048      4.5770819      296.45261      3.663781       1650384.2    
    471000   250.57364     -7.7045149      4.753336       295.06688      3.9206854      1694658.7    
    472000   251.7205      -7.5173688      4.4921642      296.35686      3.3430065      1739188.1    
    473000   251.752       -7.8086296      4.6208809      296.23179      3.5561329      1782823.1    
    474000   252.40181     -7.6121823      4.7826495      297.36285      3.442079       1828224.1    
    475000   253.26372     -8.3634716      4.5041038      297.35812      3.3133725      1873325.9    
    476000   253.80353     -7.5908501      4.6409412      298.90959      3.3133857      1919167.8    
    477000   254.2903      -7.1510147      4.5922791      299.87971      3.0441052      1962581.4    
    478000   254.9615      -6.5639393      4.6596565      301.33245      2.9815699      2003330.9    
    479000   254.08723     -6.473908       4.8057487      300.52876      3.3521278      2046991.6    
    480000   255.30146     -8.1408173      4.8183808      300.31862      2.9974819      2089873.5    
    481000   256.31429     -6.7912653      4.9097147      302.96412      3.046866       2132068.8    
    482000   256.55897     -6.1647037      4.607742       303.57971      2.9432749      2172483.9    
    483000   257.06898     -8.1568956      4.953781       302.54013      2.686972       2212230.1    
    484000   257.54303     -7.472827       4.6782117      303.51244      2.8524416      2253192.7    
    485000   258.36799     -9.6503846      4.6384115      302.27624      2.7737522      2291749.7    
    486000   258.32921     -5.3500258      5.0705552      306.96262      2.5904444      2331820.9    
    487000   259.05635     -7.2659666      4.8280472      305.66899      2.588643       2370623.7    
    488000   259.4037      -4.4223518      4.9958255      309.09351      2.6979309      2408452.3    
    489000   260.54305     -5.899194       4.7772863      308.7532       2.5919449      2445576.1    
    490000   260.54128     -7.7737635      5.1428644      307.24211      2.4721462      2484884.8    
    491000   261.52822     -5.514828       4.8206606      310.35264      2.4435416      2523447.5    
    492000   261.13789     -6.3760897      5.1061847      309.31267      2.7853061      2561200.1    
    493000   262.06718     -7.0616519      4.9465256      309.57269      2.3926187      2598576.7    
    494000   262.58712     -5.5843255      4.7923089      311.51419      2.5834235      2634856.9    
    495000   263.00876     -5.9668903      5.3298244      312.17062      2.3445803      2670762      
    496000   264.16227     -6.3059953      5.4095858      313.2832       2.3928518      2707855.6    
    497000   264.55681     -5.3839778      4.8130379      314.07791      2.2828581      2744746.7    
    498000   265.30022     -4.4047347      4.7463963      315.87467      2.4000152      2781024.6    
    499000   265.13155     -4.2293025      5.1596384      316.26274      2.2179169      2817060.3    
    500000   265.87202     -5.6317936      5.2091816      315.79047      2.2458153      2852632.3    
    501000   266.76978     -5.0574641      4.789717       317.01308      1.9802501      2886891.4    
    502000   267.14098     -4.6345393      4.9970553      318.08483      2.1985595      2921047.8    
    503000   267.3315      -6.1109658      5.6123977      317.45034      2.1089172      2956388.4    
    504000   267.28659     -7.3253212      5.3906211      315.96079      2.2443994      2991775.9    
    505000   268.11934     -4.524689       4.3575768      318.71881      2.5053775      3026207.8    
    506000   269.35463     -4.2068593      5.0304121      321.17866      2.0205246      3061530.2    
    507000   268.63812     -2.9077525      5.452277       322.04745      2.3434132      3097535.2    
    508000   270.2646      -3.022665       5.1623075      323.57701      2.0314406      3133799      
    509000   270.70397     -4.0038989      4.9533449      322.90938      2.0913736      3169775.5    
    510000   271.64042     -7.1693412      5.1734962      321.07785      2.0348872      3205679.8    
    511000   271.45307     -3.6598314      4.9875639      324.17859      2.1268622      3241111      
    512000   272.23684     -3.9195228      5.73924        325.60276      2.0713533      3275656.2    
    513000   272.95564     -2.9733037      4.9434031      326.60804      1.9998349      3312341.7    
    513798   273.74751     -3.1838343      4.824809       327.22072      2.0990664      3339034.4    
Loop time of 208.533 on 1 procs for 500000 steps with 400 atoms

Performance: 207.162 ns/day, 0.116 hours/ns, 2397.704 timesteps/s, 959.082 katom-step/s
99.0% CPU use with 1 MPI tasks x no OpenMP threads

MPI task timing breakdown:
Section |  min time  |  avg time  |  max time  |%varavg| %total
---------------------------------------------------------------
Pair    | 192.05     | 192.05     | 192.05     |   0.0 | 92.10
Bond    | 1.8304     | 1.8304     | 1.8304     |   0.0 |  0.88
Neigh   | 5.2836     | 5.2836     | 5.2836     |   0.0 |  2.53
Comm    | 4.3047     | 4.3047     | 4.3047     |   0.0 |  2.06
Output  | 0.19363    | 0.19363    | 0.19363    |   0.0 |  0.09
Modify  | 3.7291     | 3.7291     | 3.7291     |   0.0 |  1.79
Other   |            | 1.139      |            |       |  0.55

Nlocal:            400 ave         400 max         400 min
Histogram: 1 0 0 0 0 0 0 0 0 0
Nghost:            190 ave         190 max         190 min
Histogram: 1 0 0 0 0 0 0 0 0 0
Neighs:            196 ave         196 max         196 min
Histogram: 1 0 0 0 0 0 0 0 0 0

Total # of neighbors = 196
Ave neighs/atom = 0.49
Ave special neighs/atom = 1
Neighbor list builds = 5677
Dangerous builds = 0
unfix 2c
unfix 2b
unfix 2a

variable xl equal "xhi - xlo"
variable yl equal "yhi - ylo"
variable zl equal "zhi - zlo"
fix xyzl all ave/time 1 1000 1000 v_xl v_yl v_zl file xyzl.data

fix 4a all press/berendsen iso 1 1 1000
fix 4b all temp/berendsen 273.15 273.15 100
fix 4c all nve
run 5000000
Generated 0 of 0 mixed pair_coeff terms from geometric mixing rule
Per MPI rank memory allocation (min/avg/max) = 7.664 | 7.664 | 7.664 Mbytes
   Step          Temp          E_pair         E_mol          TotEng         Press          Volume    
    513798   273.74751     -3.1838093      4.8260478      327.22198      2.0929646      3339034.4    
    514000   274.29503     -3.0934369      4.8687491      328.00624      1.9514825      3404815.8    
    515000   273.85486     -2.6346821      5.5287854      328.60153      1.731025       3714606.1    
    516000   273.31765     -2.1241179      5.7503543      328.69473      1.6326303      3980547      
    517000   272.00836     -0.6896918      5.3271325      328.14874      1.7593075      4201883.1    
    518000   274.29631     -2.8498697      5.32429        328.70688      1.4441396      4425108      
    519000   273.66046     -2.6014859      5.5814702      328.45619      1.3587668      4598859      
    520000   273.23564     -2.5463085      5.941105       328.36575      1.2709562      4744852.9    
    521000   273.58749     -1.7397666      5.3753663      329.02503      1.2537667      4885104.8    
    522000   273.57377     -2.4331371      5.3048032      328.24478      1.2346342      4997049.4    
    523000   273.18388     -2.472448       5.7803071      328.21726      1.1982913      5096499.5    
    524000   272.91934     -2.3181158      5.6473651      327.92402      1.2155768      5197713.3    
    525000   273.0597      -2.5985951      6.0398021      328.2029       1.1303496      5274382.2    
    526000   273.64329     -2.7966795      5.3100364      327.96915      1.0934593      5337024.1    
    527000   273.19248     -2.2378049      5.6322727      328.31409      1.0684334      5401428.3    
    528000   272.77986     -2.7718127      5.8956363      327.5527       1.0830175      5449201.2    
    529000   273.53948     -3.5776875      5.5738766      327.32852      1.0704327      5493362.9    
    530000   272.89857     -0.84445172     6.0806591      329.80627      1.0638103      5537106.8    
    531000   273.59482     -2.1941396      5.4697555      328.67376      1.0586671      5573366.5    
    532000   273.48125     -2.2109599      5.6860555      328.73816      1.0436044      5603812.6    
    533000   273.415       -1.9681685      5.7265807      328.94269      1.029981       5632773      
    534000   273.4541      -2.7762761      5.6317974      328.0863       1.0435644      5660732.3    
    535000   272.95354     -1.8301605      5.7089187      328.5142       1.0325109      5684313.8    
    536000   273.12467     -2.7607518      5.7705419      327.84876      1.0657612      5700690.4    
    537000   272.8807      -1.6661742      5.9907058      328.87334      1.0939389      5724795.8    
    538000   273.61968     -1.4617522      5.3382095      329.30417      1.0175104      5743000.9    
    539000   272.44658     -1.3364467      6.1648739      328.86092      1.0413261      5758224.6    
    540000   273.04407     -0.83665909     5.3937361      329.30019      1.1251872      5767592.2    
    541000   272.87498     -2.0660557      6.1744232      328.65037      0.97993479     5766554.8    
    542000   272.85036     -1.3303292      5.334181       328.51658      1.1446062      5779466.6    
    543000   272.7495      -1.8031164      5.7510153      328.34066      1.1423113      5798721.5    
    544000   272.96095     -2.2866386      5.7279173      328.08553      1.0978924      5817399.5    
    545000   273.22747     -2.409309       5.4283068      327.98024      1.0217472      5831258.7    
    546000   273.17927     -1.8905023      5.6982775      328.71168      0.99524564     5844426.9    
    547000   273.00982     -1.921155       6.1264262      328.90765      1.0068183      5845098      
    548000   272.92026     -1.1509424      6.0195545      329.46447      1.0083774      5858269.6    
    549000   273.83836     -2.6972543      5.2049404      328.19548      1.0064715      5867649.5    
    550000   273.17077     -1.9369314      5.6941628      328.65103      1.0104109      5877505.6    
    551000   272.649       -0.93814637     6.1784577      329.51355      1.0053631      5891891.4    
    552000   273.5905      -1.9095498      5.559439       329.04289      0.99708118     5899118.8    
    553000   274.16391     -2.5393572      5.1125181      328.64814      1.0777578      5924221      
    554000   272.93493     -0.76049233     5.7039731      329.55679      0.99722811     5958339.5    
    555000   272.23501     -0.82923049     6.6505505      329.60218      1.0612633      5972338.9    
    556000   273.46276     -1.1423842      5.2671652      329.36586      1.0542278      6000051.3    
    557000   273.57236     -1.5463758      5.2726792      329.09773      1.0434985      6028259.4    
    558000   273.03574     -1.4787744      5.8002065      329.05463      1.0053814      6048059.4    
    559000   272.97976     -1.8283033      5.7216601      328.55998      1.0240025      6060418.7    
    560000   273.18658     -1.5632392      5.8066412      329.15601      1.0094287      6079793.7    
    561000   273.59683     -1.4265449      5.3344269      329.30841      1.0070351      6088781.8    
    562000   272.72621     -2.1176913      5.9576619      328.20503      1.0245891      6099764.1    
    563000   272.74362     -2.0495976      6.1185991      328.45478      1.0134395      6112605.9    
    564000   273.1759      -2.0228377      5.5387571      328.41582      1.0187118      6127575.1    
    565000   273.7915      -1.2583018      4.9445557      329.31831      1.0176683      6146452.8    
    566000   273.1393      -1.6237388      5.729639       328.96227      1.0056149      6157518.5    
    567000   272.63295     -1.2602713      6.265695       329.25957      1.0171208      6169255.6    
    568000   273.43486     -1.6255831      5.4684671      329.05078      1.0035588      6182405.9    
    569000   273.3016      -1.1704825      5.5039641      329.38288      1.0265284      6199510.7    
    570000   273.41654     -1.4750959      5.5449057      329.25591      1.0241094      6208953.2    
    571000   272.92027     -1.6683737      5.8226382      328.75014      1.0561822      6225097      
    572000   273.097       -0.81907449     5.7974916      329.78448      1.0035158      6243126.8    
    573000   273.48602     -0.98166387     5.2163283      329.5034       0.99477222     6250503.3    
    574000   272.47218     -1.1313315      5.7746197      328.70623      1.1715382      6262975.8    
    575000   273.50005     -3.0324939      5.73713        327.99006      0.9980378      6272139.2    
    576000   272.71617     -3.1491573      6.3036419      327.50761      0.98672904     6265939.9    
    577000   272.44345     -0.0036124409   5.2028436      329.228        1.2165664      6291260.3    
    578000   273.2333      -1.0189651      5.6008042      329.55001      1.0592806      6310485.3    
    579000   273.47792     -1.5589679      5.7312804      329.43142      1.0962535      6335037.8    
    580000   272.98722     -1.7229138      5.5481398      328.50072      1.0209469      6353412.8    
    581000   273.6045      -2.7366902      5.7704299      328.44339      1.0020672      6377973.1    
    582000   273.52241     -2.6379136      5.2419353      327.91605      1.0032912      6384154.4    
    583000   272.78803     -2.0813294      6.0258557      328.38312      1.0048316      6391474.2    
    584000   273.16035     -1.2248957      5.5616655      329.21818      1.0073433      6402153.3    
    585000   273.2827      -1.6172762      5.5431532      328.9528       1.0144709      6412996.4    
    586000   272.45198     -2.4067338      5.8606738      327.49285      1.072318       6427555.8    
    587000   273.22605     -2.2094507      5.6109542      328.36105      1.0185172      6438369.9    
    588000   273.53114     -1.8128426      5.2796268      328.78919      1.0009402      6442511.9    
    589000   273.08557     -0.97102952     5.7856482      329.60708      0.98875224     6448759.9    
    590000   273.28973     -2.6680279      5.7088959      328.07616      0.97655841     6460238.1    
    591000   272.83844     -2.2474918      5.911895       328.16295      1.0078326      6471167      
    592000   272.49481     -0.052291697    5.2090708      329.24663      1.1635609      6479069      
    593000   273.07929     -1.2038771      5.7903809      329.37151      0.98129491     6485214.7    
    594000   273.46332     -2.6172156      5.5928618      328.21739      0.99961443     6493457      
    595000   273.10577     -1.6434563      5.7931303      328.96617      0.97654338     6497325.5    
    596000   273.504       -2.0324816      5.3264617      328.58411      1.0036092      6500526      
    597000   273.4087      -2.1430211      5.4316708      328.46543      0.99603        6496327.2    
    598000   272.81955     -1.5054621      6.0273766      328.998        0.98273913     6495941.2    
    599000   273.44155     -1.5331138      5.3132834      328.99602      0.98671798     6497067.1    
    600000   273.33948     -2.1666759      5.5258509      328.45362      0.99132398     6506227.9    
    601000   272.95887     -0.73358299     5.8001249      329.70832      1.0000931      6513657      
    602000   272.9714      -2.4860403      5.9341323      328.10478      0.99743777     6524345.2    
    603000   273.1683      -1.2029724      5.5897046      329.27759      1.0169195      6532356.6    
    604000   273.69996     -1.2740959      4.922348       329.17145      1.0129931      6547215.7    
    605000   273.07641     -1.9135943      5.7008232      328.56881      0.9803505      6552655.9    
    606000   272.97958     -1.510663       6.0305402      329.18629      1.0114621      6563770.3    
    607000   273.22371     -1.3762814      5.3098579      328.89034      1.0932107      6573188.7    
    608000   273.12332     -1.7519246      5.4804316      328.56587      1.0030098      6582543      
    609000   272.74906     -1.3173358      5.8252589      328.90017      0.99447874     6592489.2    
    610000   272.93756     -2.0117405      6.1449978      328.74969      1.0219482      6600559.8    
    611000   273.652       -1.8221644      4.8426371      328.48662      0.99935614     6604672.8    
    612000   273.13797     -1.4374026      5.5082311      328.92562      0.97736215     6601642.2    
    613000   272.61175     -1.1667999      6.2180875      329.28022      0.992982       6605304.2    
    614000   273.95348     -2.0155288      5.2544374      329.06362      1.0033008      6607046.5    
    615000   273.57228     -1.2429363      5.1682472      329.29665      0.98971535     6622049.3    
    616000   272.93469     -2.1948045      5.9579726      328.37619      0.98157817     6623642.7    
    617000   273.48767     -4.0974797      5.6098422      326.78307      1.0169858      6641614.5    
    618000   273.3141      -1.7513888      5.4722459      328.78513      0.98660478     6635715      
    619000   273.56051     -3.6523672      5.3617326      327.0667       0.97098832     6630086.2    
    620000   272.2737      -3.1565148      5.9137181      326.58408      1.126879       6639787.4    
    621000   273.18556     -2.4879669      5.4329949      327.85642      0.99473845     6649796.6    
    622000   274.14194     -4.5435257      5.029787       326.53512      0.99850711     6660674.1    
    623000   272.91265     -2.2509449      5.8877978      328.22366      0.98178996     6672149.6    
    624000   272.97548     -2.5906687      5.7826853      327.85355      1.0196967      6691184.3    
    625000   273.19737     -1.6265076      5.470249       328.76918      0.9955734      6693732.4    
    626000   273.22146     -2.3152355      5.3217415      327.96059      0.99639733     6700055.3    
    627000   272.92111     -2.8665379      5.6044405      327.33477      1.0110503      6702505.2    
    628000   272.99477     -2.3885372      5.7748215      328.07077      1.0246008      6704221.7    
    629000   273.30573     -2.1195716      5.2741732      328.20892      0.97489845     6705225.3    
    630000   273.57218     -4.1182411      5.4217911      326.67476      0.96256825     6708636.8    
    631000   273.21928     -3.6202028      5.5982204      326.92951      0.99585237     6698206.2    
    632000   272.79665     -2.9595613      5.9256816      327.41496      0.96876906     6706992.2    
    633000   273.43146     -2.3808205      5.3020025      328.12504      1.0016327      6699841.8    
    634000   273.31003     -2.2678145      5.1922282      327.98384      1.0347638      6696641.1    
    635000   272.27137     -1.3572558      6.0754546      328.5423       1.036994       6706550.2    
    636000   273.24363     -0.34663833     5.3349357      329.96875      1.016373       6718725.2    
    637000   273.48127     -1.6620389      5.4522968      329.05334      0.98620808     6726102.6    
    638000   273.11914     -1.5087362      5.4450318      328.76869      0.97720292     6734670.6    
    639000   273.0013      -1.3973771      5.5402391      328.8351       1.032932       6742841.9    
    640000   272.71232     -2.6183844      6.0060767      327.73624      0.99110533     6754784.9    
    641000   273.34598     -2.4873494      5.0056669      327.62051      1.0346355      6768956.7    
    642000   273.14345     -0.92887316     5.6158514      329.54829      1.0028575      6773055.7    
    643000   272.74922     -0.83555996     6.0020549      329.55893      1.0214068      6788385.3    
    644000   273.40883     -1.5336093      5.2862343      328.92956      1.0424834      6805254      
    645000   273.64913     -1.616346       5.3260055      329.17239      1.0082712      6821295.6    
    646000   273.14246     -2.2412345      5.6335223      328.25241      1.0165757      6834456.3    
    647000   272.94137     -1.8998708      5.5560379      328.27713      0.99070821     6847803.4    
    648000   273.14818     -1.9046338      5.3939328      328.35624      1.0401109      6857367.1    
    649000   272.9258      -1.1180958      5.7749176      329.25927      0.99678329     6870864      
    650000   272.94368     -1.6135939      5.916822       328.92694      1.0046681      6872903.8    
    651000   273.60385     -1.5614945      4.8412449      328.68864      1.0130047      6883573.4    
    652000   273.19662     -1.6828332      5.692789       328.9345       0.9728233      6882722.4    
    653000   272.96588     -2.5789822      5.8221384      327.89327      0.97732158     6887075.3    
    654000   273.25167     -1.678338       5.5238114      328.83549      0.99845377     6888699.1    
    655000   273.31639     -1.0861845      5.3698905      329.3507       1.0357865      6889987.2    
    656000   273.22579     -2.305452       5.2801735      327.93396      1.0145007      6898620.7    
    657000   272.9891      -0.93377346     5.6538308      329.39779      0.96779402     6895474.1    
    658000   272.3456      -0.50917246     5.9002415      329.30345      1.0786857      6897559.3    
    659000   273.48611     -2.2188804      5.5159969      328.56596      1.0429906      6897904.6    
    660000   273.43821     -1.2265134      5.0975285      329.08289      1.0056173      6898133.4    
    661000   273.01592     -1.5438281      5.6773377      328.84314      0.98504235     6896658.6    
    662000   272.65204     -0.57527693     6.0526271      329.75421      0.99622039     6896251      
    663000   273.71982     -0.9667001      4.930479       329.51059      1.001629       6895579.1    
    664000   273.58631     -2.3070279      5.2552495      328.33624      1.0172228      6897519.2    
    665000   272.43517     -2.5162211      5.7231924      327.22589      0.99682531     6906031.6    
    666000   272.62236     -1.645082       6.0438354      328.64031      0.97439739     6897541.2    
    667000   273.40708     -2.2162852      5.0092618      327.96783      0.98671456     6893027.7    
    668000   272.72627     -1.6187246      5.8260868      328.57249      1.0332066      6894557.4    
    669000   273.40333     -1.0191333      5.0909881      329.24224      0.99760483     6904212.9    
    670000   273.32641     -1.2669795      5.5212451      329.33317      0.97783578     6901839.3    
    671000   272.46442     -0.9282212      5.9300407      329.05553      0.9989874      6913982.6    
    672000   273.18652     -0.82272828     5.4703529      329.56016      1.0152037      6923355.2    
    673000   273.58262     -0.24543037     5.0136002      330.1518       1.0004482      6926980.1    
    674000   273.23252     -1.2015285      5.3378229      329.10354      0.96858596     6931058.4    
    675000   272.35908     -1.1555358      6.2486733      329.02156      0.96444345     6919930.4    
    676000   273.13249     -1.4832793      5.4400301      328.80502      0.99061396     6894474.3    
    677000   274.02323     -1.0481902      4.5410946      329.40057      0.99248504     6882625.3    
    678000   272.65883     -0.54898159     5.8992767      329.63522      0.98139744     6874255.9    
    679000   272.79523     -0.66536562     5.8399662      329.62175      0.969602       6864279.7    
    680000   273.3014      -0.61290562     5.1655965      329.60185      0.98143611     6850222      
    681000   273.6722      -1.1518148      4.94007        329.27843      0.97671709     6834773.6    
    682000   272.83118     -1.9573842      5.6627191      328.19524      0.97020778     6829192.1    
    683000   272.83342     -1.9393073      5.9808275      328.5341       0.97451479     6812385.1    
    684000   273.48376     -2.4269224      5.2966195      328.13575      0.98608801     6806625.8    
    685000   273.37914     -1.19           4.9375284      328.88915      0.98741745     6797472.6    
    686000   272.81071     -0.71488246     5.6390436      329.38973      0.98966741     6791282.6    
    687000   273.08126     -1.2257467      5.7326384      329.29423      0.99147435     6784704.5    
    688000   273.61006     -1.6373946      4.8439164      328.62279      0.99502403     6786386      
    689000   273.47414     -1.1368988      5.1048474      329.22256      0.98709328     6781564.3    
    690000   272.88262     -2.7094322      5.9964905      327.83816      0.98118667     6782339.4    
    691000   273.11031     -2.5904085      5.5211008      327.75259      0.97758337     6772892.7    
    692000   272.92517     -1.0617937      5.0620183      328.60192      1.0275172      6772412.4    
    693000   273.02429     -1.420565       5.6009892      328.90001      0.97288738     6764420.8    
    694000   272.71424     -1.9831869      5.7477412      328.11538      1.0551049      6745748.4    
    695000   273.04921     -1.968993       4.9304163      327.71065      1.0119528      6749192.9    
    696000   273.48354     -1.7783658      4.9373931      328.42482      0.96298728     6748379.5    
    697000   272.80963     -1.9283369      5.5046278      328.04057      0.96335209     6761138.7    
    698000   273.10673     -2.7356159      5.6112867      327.69331      0.97318771     6764280.4    
    699000   273.32369     -1.1453978      5.0244292      328.95471      0.990934       6757085      
    700000   273.03551     -1.7308208      5.5521576      328.55427      1.0041019      6760304.1    
    701000   272.8012      -1.0530568      5.9187451      329.31995      1.0002599      6754441.8    
    702000   273.39164     -1.2124845      5.0343966      328.9784       0.99102212     6759984.9    
    703000   273.36385     -1.2635319      5.217802       329.07771      0.99530935     6754175.7    
    704000   273.16683     -0.55228263     5.2827207      329.61955      0.98101959     6752439.8    
    705000   272.9904      -0.46906982     5.5722607      329.78247      0.98237303     6749499      
    706000   273.28402     -1.8758065      5.1485618      328.30124      1.0833925      6752739.3    
    707000   273.0722      -1.1131154      5.3113865      328.97484      1.0001992      6741240.2    
    708000   273.26477     -1.9730164      5.4087673      328.44135      1.0147589      6737204.2    
    709000   272.81969     -0.9327994      5.5549729      329.09841      0.98336525     6735360      
    710000   273.44356     -1.6028545      5.3498859      328.96527      0.99163115     6724649.8    
    711000   273.00833     -0.64976433     5.4027478      329.45358      0.97929719     6718858.7    
    712000   273.14268     -0.64973326     5.4004181      329.61108      0.98236213     6710249.5    
    713000   273.19064     -1.2327086      5.206133       328.89085      1.0049817      6705844      
    714000   273.21702     -0.26483349     5.2385747      329.92254      0.99457857     6702519.3    
    715000   273.28944     -1.2157366      5.460369       329.27957      0.97352926     6698897.4    
    716000   272.94465     -1.5023191      5.6994562      328.82201      0.99849319     6707265.7    
    717000   273.18931     -1.2136543      5.1049858      328.80718      1.0396021      6714229.3    
[...]
   6350000   272.94717     -1.0012933      5.3214927      328.94806      1.0092472    
   6351000   271.78031     -0.24519596     5.9683623      328.96324      0.61235818   
   6352000   272.32012     -0.87287735     5.9537828      328.963        0.48496715   
   6353000   273.0653      -0.97585108     5.1316876      328.9242       0.71521611   
   6354000   272.35625     -0.63002017     5.6448304      328.93987      1.1072561    
   6355000   271.88193     -0.5164652      6.1103036      328.95477      0.91220099   
   6356000   272.39388     -0.33084906     5.3330097      328.97198      1.1585341    
   6357000   272.55973     -0.49797862     5.3059567      328.97504      1.4659004    
   6358000   272.1901      -0.58460328     5.8290716      328.97192      1.1459597    
   6359000   272.54919     -0.98774776     5.7968579      328.96364      0.59021837   
   6360000   272.51083     -0.84266593     5.6951314      328.96137      0.23442498   
   6361000   272.83478     -1.1041683      5.5540991      328.94413      0.65588383   
   6362000   272.52282     -0.92505147     5.7452991      328.94341      1.089861     
   6363000   272.58336     -0.84507081     5.5985093      328.94861      1.1245263    
   6364000   272.78877     -0.67304992     5.1827678      328.94919      1.1665519    
   6365000   272.20839     -1.0444351      6.2483501      328.95312      0.96907001   
   6366000   272.83729     -1.4037874      5.8692445      328.96264      1.0286563    
   6367000   272.5736      -0.13523525     4.9190694      328.96739      0.86142673   
   6368000   272.09531     -0.4334961      5.7928178      328.97403      0.5936294    
   6369000   271.79119     -0.29690876     6.0131073      328.9692       0.53313764   
   6370000   272.40059     -0.72069066     5.7080492      328.96515      0.41903831   
   6371000   272.26721     -0.70968665     5.8548397      328.96431      1.0232182    
   6372000   273.52665     -1.6140364      5.2173775      328.9204       1.5524113    
   6373000   273.73586     -1.9298014      5.2643354      328.90042      1.3429359    
   6374000   272.20576     -0.744455       5.9152632      328.91689      0.7853864    
   6375000   272.16244     -1.2690455      6.5110802      328.93658      0.30767509   
   6376000   273.04636     -0.86008175     5.0373528      328.92311      0.69896149   
   6377000   272.83138     -1.0233948      5.4595725      328.92632      0.99574506   
   6378000   272.22943     -0.97977451     6.1507667      328.94522      0.99190005   
   6379000   273.69137     -1.81881        5.2367297      328.9309       1.1856741    
   6380000   273.89996     -2.2846327      5.4449125      328.92133      0.88430361   
   6381000   273.33736     -2.3865261      6.2310884      328.9365       0.71229036   
   6382000   272.85682     -1.1123907      5.5297482      328.93776      0.72136788   
   6383000   273.33034     -1.9791275      5.8294043      328.93386      0.97260975   
   6384000   273.26376     -1.3828297      5.3140828      328.93565      1.2281654    
   6385000   272.11421     -0.482935       5.7892299      328.94348      0.9998473    
   6386000   273.12277     -1.3734143      5.4642236      328.92752      0.73884116   
   6387000   272.82597     -1.40122        5.8601884      328.94268      0.55667467   
   6388000   272.26623     -0.88599482     6.0297345      328.96173      0.71860378   
   6389000   272.45817     -0.5110353      5.4133298      328.94857      1.1483366    
   6390000   273.08506     -0.96455395     5.11276        328.94007      1.0893072    
   6391000   271.39075     -0.158734       6.3522423      328.97026      0.92799089   
   6392000   272.38506     -0.41285962     5.4192885      328.96575      1.0532583    
   6393000   272.85792     -1.080784       5.5050457      328.94598      1.0219768    
   6394000   272.6425      -1.0310731      5.7008081      328.93524      0.63244383   
   6395000   271.72937     -0.30369033     6.0922994      328.96809      0.49845794   
   6396000   272.51221     -0.39643625     5.2357811      328.9499       0.87774382   
   6397000   272.80344     -1.035579       5.5216982      328.94304      1.1051071    
   6398000   272.52366     -1.3129821      6.1203344      328.93152      1.0170922    
   6399000   272.24605     -0.68596792     5.840545       328.94857      1.02834      
   6400000   273.75264     -1.4673435      4.827268       328.94577      1.3815924    
   6401000   272.79609     -0.98193959     5.4902167      328.95645      0.86933058   
   6402000   271.88262     -1.1770119      6.7695972      328.95434      0.1155272    
   6403000   273.32667     -1.4605974      5.2895548      328.90818      0.41709294   
   6404000   273.22958     -1.6481169      5.5923712      328.908        0.99831665   
   6405000   273.26812     -1.4416853      5.3636232      328.93152      1.371914     
   6406000   272.0518      -0.30526988     5.679363       328.93705      1.2635498    
   6407000   272.80986     -1.6026746      6.0638911      328.92577      0.88961366   
   6408000   273.02503     -1.1146942      5.3286648      328.93444      0.84642215   
   6409000   273.17975     -1.6312259      5.647156       328.92041      0.96211858   
   6410000   272.90191     -1.4176225      5.7541475      328.91056      0.84243786   
   6411000   273.06525     -1.5500636      5.7256083      328.94385      0.67072192   
   6412000   272.62121     -0.80328432     5.503033       328.93994      0.71527024   
   6413000   272.85307     -0.94364842     5.3769076      328.9492       0.88608861   
   6414000   272.04597     -0.57054065     5.9585627      328.94404      0.9885471    
   6415000   271.68247     -0.23555371     6.0868519      328.975        1.2371267    
   6416000   273.04686     -0.74741872     4.9631581      328.96216      1.1672943    
   6417000   272.44471     -0.65600666     5.5693454      328.9436       0.98251953   
   6418000   272.2818      -0.70950282     5.8080002      328.93501      0.77797534   
   6419000   272.11922     -0.95794832     6.2552978      328.94049      0.74122701   
   6420000   272.84332     -0.71568784     5.1632605      328.95192      0.99998188   
   6421000   272.73285     -0.44596394     5.0352659      328.96226      0.92338006   
   6422000   271.85335     -0.39636104     6.0156076      328.94619      0.65803818   
   6423000   271.77656     -0.5287282      6.2139974      328.92087      0.57653568   
   6424000   272.86205     -1.0058339      5.3861725      328.90697      0.87280945   
   6425000   272.71461     -0.92812063     5.4866916      328.90984      1.3874068    
   6426000   272.89793     -1.2613626      5.621353       328.92929      1.6081351    
   6427000   273.39264     -1.607422       5.3875091      328.93777      1.3001057    
   6428000   274.05672     -2.9131076      5.8700645      328.90446      0.45778405   
   6429000   273.29415     -1.7835453      5.6487708      328.90576      0.18700874   
   6430000   272.92311     -1.1915186      5.514172       328.9219       0.48352643   
   6431000   273.91164     -2.8319717      5.9965739      328.93955      0.68461261   
   6432000   273.22447     -1.6259608      5.605924       328.93764      1.1881194    
   6433000   272.73098     -1.0166845      5.5858432      328.9399       1.7286099    
   6434000   273.34432     -1.1020854      4.9160982      328.91422      1.6855825    
   6435000   272.23775     -0.60787235     5.7670529      328.9433       0.92818078   
   6436000   271.60509     -0.59539467     6.5227797      328.95906      0.22455075   
   6437000   272.26151     -0.27555308     5.4049009      328.94173      0.39980923   
   6438000   273.73149     -1.5753106      4.9440548      328.92943      0.67722699   
   6439000   272.25335     -0.98753885     6.1324928      328.94763      0.90423914   
   6440000   272.7722      -1.1415657      5.6676511      328.94585      1.1071486    
   6441000   273.09762     -1.2357435      5.3565601      328.92761      1.2247176    
   6442000   272.65836     -1.0930142      5.7457256      328.93708      1.3462844    
   6443000   272.72034     -1.1133398      5.6640275      328.90877      1.2820194    
   6444000   273.08103     -1.1670547      5.3059016      328.92592      0.91237837   
   6445000   271.83747     -0.5023862      6.1340907      328.93975      0.49317947   
   6446000   273.02826     -1.393913       5.5827369      328.91313      0.4446142    
   6447000   273.7319      -1.6905938      5.0239749      328.89456      0.75489503   
   6448000   273.1533      -2.0024608      6.0261726      328.89673      0.99484294   
   6449000   272.69649     -1.2796052      5.8705015      328.92062      1.0346116    
   6450000   272.49791     -0.5768807      5.4230429      328.9397       0.96921549   
   6451000   272.98077     -0.97429252     5.250979       328.94451      1.3320772    
   6452000   272.57688     -1.0542339      5.7933202      328.92655      1.4441946    
   6453000   272.99418     -2.1277468      6.3522152      328.90824      0.82012709   
   6454000   274.00678     -1.6398247      4.6550929      328.90337      0.6183741    
   6455000   272.65541     -0.82406654     5.4704946      328.92729      0.50594271   
   6456000   271.50111     -0.51313936     6.5463422      328.94121      0.4502452    
   6457000   272.15672     -0.51967472     5.7625986      328.93067      0.8173908    
   6458000   273.55964     -1.2218791      4.8300551      328.96447      1.386343     
   6459000   272.21894     -0.27884648     5.4808973      328.9638       1.6131511    
   6460000   272.68398     -1.4791609      6.1142824      328.94996      1.3281737    
   6461000   272.90662     -1.2227334      5.5677468      328.92465      0.85428489   
   6462000   273.22938     -1.6857653      5.6261531      328.9039       0.44228628   
   6463000   273.68122     -2.0217514      5.44135        328.92049      0.41482457   
   6464000   272.97344     -1.6156918      5.8747301      328.91814      0.82896306   
   6465000   273.03567     -1.6726132      5.8819699      328.94248      1.207749     
   6466000   272.73936     -0.66388145     5.2123665      328.92919      1.3957832    
   6467000   272.94208     -0.91346993     5.2282591      328.9366       1.1139625    
   6468000   272.89396     -1.5331992      5.9077916      328.93917      0.83205986   
   6469000   272.45684     -1.0204099      5.9037445      328.92802      0.77991504   
   6470000   272.86709     -1.4684976      5.8654869      328.9296       0.58642745   
   6471000   273.88407     -2.5135775      5.6893981      328.91797      0.69197398   
   6472000   273.99781     -2.0661737      5.0877287      328.89899      1.2416217    
   6473000   273.13484     -1.5484899      5.6167831      328.91936      1.5248531    
   6474000   272.66089     -1.0651518      5.7207531      328.94298      0.94992229   
   6475000   272.65538     -1.3909611      6.0347081      328.92457      0.37818353   
   6476000   273.39754     -1.3158119      5.0774703      328.92516      0.58677332   
   6477000   272.33511     -1.1411564      6.1748275      328.93359      0.89176088   
   6478000   272.48347     -0.63556168     5.4977605      328.93856      1.1170243    
   6479000   272.01712     -0.055439759    5.4698774      328.93615      1.1203205    
   6480000   273.40559     -2.0198998      5.767826       328.92101      1.1880158    
   6481000   273.44889     -1.560196       5.2836526      328.94804      1.371644     
   6482000   272.73979     -1.0376085      5.5815162      328.92513      0.70318495   
   6483000   272.51515     -1.4798468      6.2921616      328.92636      0.25335021   
   6484000   272.57271     -0.85268648     5.6066702      328.93649      0.62127267   
   6485000   273.92476     -2.2109785      5.3458689      328.92544      1.1743065    
   6486000   273.45764     -1.6616291      5.3410191      328.91438      1.4010645    
   6487000   273.26126     -1.7562991      5.6608799      328.906        1.1796092    
   6488000   272.96261     -1.7515093      6.0439663      328.93868      0.94139378   
   6489000   273.0303      -1.3030549      5.5087911      328.93246      0.68799629   
   6490000   272.93211     -1.0714967      5.3895556      328.92801      0.76324969   
   6491000   272.78135     -1.1481159      5.6633061      328.94584      1.0429049    
   6492000   272.45883     -1.1582246      6.0415331      328.93037      0.98197123   
   6493000   273.09754     -1.4042255      5.4951561      328.89763      1.0037984    
   6494000   273.41703     -1.5325674      5.2698441      328.92397      1.2057773    
   6495000   273.62626     -2.0730994      5.5723887      328.93482      1.2396138    
   6496000   272.75578     -1.189674       5.7223268      328.93288      0.85894515   
   6497000   272.851       -1.2709158      5.6971187      328.93968      0.47895346   
   6498000   272.93954     -1.3044997      5.6378454      328.95214      0.64994839   
   6499000   272.49009     -0.69990012     5.5684206      328.95276      0.92611537   
   6500000   272.70762     -1.2051476      5.8104495      328.94825      1.2549499    
   6501000   273.1689      -1.4633504      5.5088441      328.93707      1.4415507    
   6502000   273.34033     -1.2066628      5.0413743      328.93017      1.3690795    
   6503000   273.26441     -1.7509234      5.6770038      328.93125      0.86009156   
   6504000   272.46389     -1.5811152      6.4602729      328.93224      0.34777773   
   6505000   273.62085     -1.8413846      5.3367168      328.92444      0.59102006   
   6506000   273.4401      -1.3016726      5.0159643      328.92842      0.95290023   
   6507000   273.34285     -2.1173964      5.9630999      328.94416      1.1662434    
   6508000   272.82391     -1.3863052      5.84829        328.94325      1.2071995    
   6509000   273.07946     -1.037856       5.1731799      328.92053      1.1143598    
   6510000   273.71975     -2.222116       5.5915053      328.91612      1.1528523    
   6511000   272.98065     -1.9080096      6.1653327      328.925        1.0042549    
   6512000   273.09895     -1.217924       5.3144457      328.9049       0.84955355   
   6513000   273.15679     -1.142528       5.1923361      328.92698      0.84825466   
   6514000   272.88251     -1.3979471      5.8017301      328.95474      0.77384171   
   6515000   272.45676     -0.92090117     5.8206819      328.94437      0.80605348   
   6516000   272.94265     -1.3156376      5.6184941      328.92534      0.9241261    
   6517000   273.29584     -1.502865       5.3879429      328.92764      1.223714     
   6518000   273.19259     -1.3944287      5.3913074      328.91663      1.3606764    
   6519000   273.48144     -2.2196824      5.8869607      328.93057      1.1776138    
   6520000   273.09423     -1.8006182      5.9336332      328.93578      0.93885481   
   6521000   272.92857     -1.1185764      5.4327457      328.91992      0.85695512   
   6522000   273.6136      -1.6643789      5.1825032      328.93861      0.96587763   
   6523000   272.86649     -1.4424516      5.8551055      328.94456      0.7714749    
   6524000   271.78479     -0.37116524     6.0724909      328.94672      0.62883914   
   6525000   272.52036     -0.17968622     5.0132361      328.95379      0.93830748   
   6526000   272.20072     -0.63812692     5.8524929      328.95444      1.1038016    
   6527000   272.18137     -0.47720285     5.6995184      328.93939      1.3176305    
   6528000   273.37213     -1.7928052      5.5754945      328.91598      1.3360458    
   6529000   273.51057     -1.7533212      5.3686663      328.91328      1.0961193    
   6530000   273.09421     -1.6626052      5.7589849      328.89912      0.83882102   
   6531000   273.22921     -1.8142073      5.7602412      328.90934      0.6440445    
   6532000   273.94789     -2.4088528      5.4890276      328.89823      0.65795149   
   6533000   273.83057     -2.6627008      5.8832823      328.89911      0.77462191   
   6534000   274.08889     -2.5124636      5.4316757      328.90498      1.1396398    
   6535000   273.67681     -2.0067999      5.4235862      328.91245      1.3235226    
   6536000   273.23585     -1.6761417      5.6226207      328.91768      1.1756838    
   6537000   273.839       -2.599189       5.8425721      328.93193      1.0128473    
   6538000   273.38635     -2.0308913      5.8155278      328.93484      0.80253119   
   6539000   272.9545      -1.0283488      5.3210422      328.92928      0.77399881   
   6540000   273.57855     -2.1115948      5.6556509      328.92284      0.89242383   
   6541000   273.69039     -2.3817758      5.7850876      328.91512      1.0570681    
   6542000   274.78262     -3.4091813      5.479751       328.88141      1.2290083    
   6543000   274.63694     -3.1851084      5.4309551      328.88343      0.96791855   
   6544000   274.62622     -3.2617941      5.5144266      328.87746      0.68504786   
   6545000   272.92153     -1.7021552      6.0105893      328.9058       0.60412971   
   6546000   272.2559      -0.96714021     6.0885691      328.92714      0.97793457   
   6547000   273.48163     -1.5225503      5.1870623      328.92804      1.6235486    
   6548000   272.99911     -0.90025468     5.1535526      328.94294      1.6987239    
   6549000   272.6112      -0.69189456     5.4210987      328.95749      0.85996681   
   6550000   271.42842     -0.26011142     6.4021636      328.9636       0.022695415  
   6551000   272.42713     -0.9924637      5.9275096      328.9444       0.35395045   
   6552000   273.32159     -1.2641494      5.0899497      328.89898      1.1797693    
   6553000   273.01537     -1.0772367      5.2860839      328.91782      1.3496429    
   6554000   272.45506     -1.3174876      6.2230533      328.94814      1.3297936    
   6555000   272.83103     -1.1517494      5.6150689      328.95305      1.4424224    
   6556000   274.06814     -2.1957572      5.1647031      328.93002      1.0741497    
   6557000   274.07572     -2.4448998      5.3913936      328.91659      0.5633016    
   6558000   273.02876     -2.3325637      6.5362989      328.92864      0.12229737   
   6559000   274.0438      -2.8429198      5.8406887      328.92991      0.45278115   
   6560000   273.65355     -1.5184173      4.9748611      328.92444      1.2261259    
   6561000   272.4602      -1.02119        5.9069479      328.93444      1.620821     
   6562000   273.31793     -1.5692232      5.4468371      328.94644      1.6438662    
   6563000   273.00779     -1.0715855      5.3158863      328.94426      1.1432938    
   6563798   272.63039     -0.8772645      5.5658653      328.9397       1.438747     
Loop time of 11.1641 on 1 procs for 1000000 steps with 400 atoms

Performance: 7739.085 ns/day, 0.003 hours/ns, 89572.739 timesteps/s, 35.829 Matom-step/s
96.8% CPU use with 1 MPI tasks x no OpenMP threads

MPI task timing breakdown:
Section |  min time  |  avg time  |  max time  |%varavg| %total
---------------------------------------------------------------
Pair    | 1.691      | 1.691      | 1.691      |   0.0 | 15.15
Bond    | 2.1204     | 2.1204     | 2.1204     |   0.0 | 18.99
Neigh   | 1.4852     | 1.4852     | 1.4852     |   0.0 | 13.30
Comm    | 1.0432     | 1.0432     | 1.0432     |   0.0 |  9.34
Output  | 0.35316    | 0.35316    | 0.35316    |   0.0 |  3.16
Modify  | 3.1573     | 3.1573     | 3.1573     |   0.0 | 28.28
Other   |            | 1.314      |            |       | 11.77

Nlocal:            400 ave         400 max         400 min
Histogram: 1 0 0 0 0 0 0 0 0 0
Nghost:            144 ave         144 max         144 min
Histogram: 1 0 0 0 0 0 0 0 0 0
Neighs:             85 ave          85 max          85 min
Histogram: 1 0 0 0 0 0 0 0 0 0

Total # of neighbors = 85
Ave neighs/atom = 0.2125
Ave special neighs/atom = 1
Neighbor list builds = 16121
Dangerous builds = 0
unfix 7a

Total wall time: 0:05:36
