LAMMPS Description # full

19 atoms
8 bonds
7 angles
7 dihedrals
1 impropers

7 atom types
5 bond types
5 angle types
3 dihedral types
1 improper types

0 18.0987 xlo xhi
0 12.2691 ylo yhi
0 14.5997 zlo zhi

Masses

1 15.0350 # CH3 n-Butane C 83 #
2 15.0350 # CH3 Isobutane C 84 #
3 14.0270 # CH2 n-Butane C 86 #
4 15.9990 # OH Alcohol Hydroxyl O 104 #
5 1.0080 # H Alcohol Hydroxyl H 105 #
6 13.0190 # CH Isopropanol C 108 #
7 39.9480 # Argon Atom Ar 211 #

Pair Coeffs

1 0.1750 3.9050
2 0.1600 3.9100
3 0.1180 3.9050
4 0.1700 3.0700
5 0.0000 0.0000
6 0.0800 3.8500
7 0.2340 3.4010

Bond Coeffs

1 260.0000 1.5260
2 260.0000 1.5260
3 260.0000 1.5260
4 553.0000 0.9450
5 386.0000 1.4250

Angle Coeffs

1 63.0000 112.4000
2 63.0000 112.4000
3 63.0000 112.4000
4 55.0000 108.5000
5 80.0000 109.5000

Dihedral Coeffs

1 0.0000 0.0000 4.0000 0.0000
2 0.0000 0.0000 4.0000 0.0000
3 0.0000 0.0000 1.0000 0.0000

Improper Coeffs

1 14.0000 -1 3

Atoms

1 1 1 0.0000 6.6189 1.0746 6.6077
2 1 3 0.0000 6.8177 0.8819 8.1084
3 1 3 0.0000 6.9194 -0.5902 8.4972
4 1 3 0.0000 8.3659 -1.0599 8.6226
5 1 3 -0.0000 9.1174 -0.3373 9.7369
6 1 6 0.2650 10.3759 0.3619 9.2311
7 1 2 0.0000 11.6682 -0.0864 9.9075
8 1 4 -0.7000 10.3736 0.3732 7.8061
9 1 5 0.4350 9.7761 -0.2927 7.5019
10 2 7 0.0000 2.1770 9.7291 3.8111
11 3 7 0.0000 6.7017 9.7291 3.8111
12 4 7 0.0000 2.1770 3.5946 3.8111
13 5 7 0.0000 6.7017 3.5946 3.8111
14 6 7 0.0000 11.2264 9.7291 3.8111
15 7 7 0.0000 15.7511 9.7291 3.8111
16 8 7 0.0000 11.2264 9.7291 11.1109
17 9 7 0.0000 15.7511 9.7291 11.1109
18 10 7 0.0000 11.2264 3.5946 3.8111
19 11 7 0.0000 15.7511 3.5946 3.8111

Bonds

1 1 1 2
2 3 2 3
3 3 3 4
4 3 4 5
5 3 5 6
6 2 6 7
7 5 6 8
8 4 8 9

Angles

1 2 1 2 3
2 3 2 3 4
3 3 3 4 5
4 1 4 5 6
5 5 7 6 8
6 5 5 6 8
7 4 9 8 6

Dihedrals

1 1 1 2 3 4
2 1 2 3 4 5
3 1 3 4 5 6
4 1 4 5 6 7
5 2 4 5 6 8
6 3 7 6 8 9
7 3 5 6 8 9

Impropers

1 1 5 7 6 8

