LAMMPS (7 Feb 2024 - Development - patch_7Feb2024-18-gc6a8f1fe58)
units real
atom_style full
bond_style harmonic
angle_style harmonic
dihedral_style opls
improper_style cvff
pair_style lj/cut/coul/long 11.0 11.0
pair_modify mix geometric
special_bonds lj/coul 0 0 0.5
kspace_style pppm 0.0001
read_data polymer_builder.data
Reading data file ...
  orthogonal box = (0 0 0) to (5.6409 5.6409 5.6409)
  1 by 1 by 1 MPI processor grid
  reading atoms ...
  9 atoms
  scanning bonds ...
  2 = max bonds/atom
  scanning angles ...
  1 = max angles/atom
  reading bonds ...
  6 bonds
  reading angles ...
  3 angles
Finding 1-2 1-3 1-4 neighbors ...
  special bond factors lj:    0        0        0.5     
  special bond factors coul:  0        0        0.5     
     2 = max # of 1-2 neighbors
     1 = max # of 1-3 neighbors
     1 = max # of 1-4 neighbors
     2 = max # of special neighbors
  special bonds CPU = 0.000 seconds
  read_data CPU = 0.005 seconds

timestep 1
thermo_modify flush yes
thermo 1000
dump 1 all custom 1000 dump.custom.gz id xu yu zu
dump_modify 1 sort id
min_style fire
minimize 1.0e-6 1.0e-8 1000000 10000000
PPPM initialization ...
  using 12-bit tables for long-range coulomb (src/kspace.cpp:342)
  G vector (1/distance) = 0.26989726
  grid = 4 4 4
  stencil order = 5
  estimated absolute RMS force accuracy = 0.0032772766
  estimated relative force accuracy = 9.869421e-06
  using double precision FFTW3
  3d grid and FFT values/proc = 1331 64
Generated 1 of 1 mixed pair_coeff terms from geometric mixing rule
Neighbor list info ...
  update: every = 1 steps, delay = 0 steps, check = yes
  max neighbors/atom: 2000, page size: 100000
  master list distance cutoff = 13
  ghost atom cutoff = 13
  binsize = 6.5, bins = 1 1 1
  1 neighbor lists, perpetual/occasional/extra = 1 0 0
  (1) pair lj/cut/coul/long, perpetual
      attributes: half, newton on
      pair build: half/bin/newton
      stencil: half/bin/3d
      bin: standard
  Parameters for fire:
    dmax  delaystep dtgrow dtshrink alpha0 alphashrink tmax tmin   integrator   halfstepback   abcfire  
     0.1     20      1.1     0.5     0.25     0.99      10  0.02 eulerimplicit      yes          no     
Per MPI rank memory allocation (min/avg/max) = 6.986 | 6.986 | 6.986 Mbytes
   Step          Temp          E_pair         E_mol          TotEng         Press     
         0   0              19.223404      3.6197919      22.843196      44729.5      
       962   0.027330343   -28.74913       2.0005693     -26.747909     -1107.6808    
Loop time of 0.0658527 on 1 procs for 962 steps with 9 atoms

98.9% CPU use with 1 MPI tasks x no OpenMP threads

Minimization stats:
  Stopping criterion = energy tolerance
  Energy initial, next-to-last, final = 
      22.8431959785236  -26.7485363265396  -26.7485604851883
  Force two-norm initial, final = 188.85084 0.13371061
  Force max component initial, final = 98.603437 0.072419913
  Final line search alpha, max atom move = 0 0
  Iterations, force evaluations = 962 1013

MPI task timing breakdown:
Section |  min time  |  avg time  |  max time  |%varavg| %total
---------------------------------------------------------------
Pair    | 0.045557   | 0.045557   | 0.045557   |   0.0 | 69.18
Bond    | 0.00053964 | 0.00053964 | 0.00053964 |   0.0 |  0.82
Kspace  | 0.012372   | 0.012372   | 0.012372   |   0.0 | 18.79
Neigh   | 8.5447e-05 | 8.5447e-05 | 8.5447e-05 |   0.0 |  0.13
Comm    | 0.0058667  | 0.0058667  | 0.0058667  |   0.0 |  8.91
Output  | 0          | 0          | 0          |   0.0 |  0.00
Modify  | 0          | 0          | 0          |   0.0 |  0.00
Other   |            | 0.001432   |            |       |  2.17

Nlocal:              9 ave           9 max           9 min
Histogram: 1 0 0 0 0 0 0 0 0 0
Nghost:           1563 ave        1563 max        1563 min
Histogram: 1 0 0 0 0 0 0 0 0 0
Neighs:           2089 ave        2089 max        2089 min
Histogram: 1 0 0 0 0 0 0 0 0 0

Total # of neighbors = 2089
Ave neighs/atom = 232.11111
Ave special neighs/atom = 2
Neighbor list builds = 1
Dangerous builds = 0

fix rigid all shake 0.0001 10 10000  b 0 a 0
ERROR: Invalid bond type index for fix shake (src/RIGID/fix_shake.cpp:142)
Last command: fix rigid all shake 0.0001 10 10000  b 0 a 0
