LAMMPS Description # full

9 atoms
6 bonds
3 angles
0 dihedrals
0 impropers

2 atom types
1 bond types
1 angle types
0 dihedral types
0 improper types

0 5.6409 xlo xhi
0 5.6409 ylo yhi
0 5.6409 zlo zhi

Masses

1 15.9990 # O Water (TIP3P) O 77 #
2 1.0080 # H Water (TIP3P) H 78 #

Pair Coeffs

1 0.1521 3.1507
2 0.0000 0.0000

Bond Coeffs

1 529.6000 0.9572

Angle Coeffs

1 34.0500 104.5200

Atoms

1 1 1 -0.8340 3.6065 -0.2632 2.9408
2 1 2 0.4170 4.3835 -0.6939 3.2974
3 1 2 0.4170 3.7015 0.6732 2.7666
4 2 1 -0.8340 -1.2540 1.6747 -0.7900
5 2 2 0.4170 -1.9870 1.2231 -1.2084
6 2 2 0.4170 -0.5647 1.1058 -0.4474
7 3 1 -0.8340 2.7055 3.7641 4.2910
8 3 2 0.4170 2.1159 3.0460 4.5210
9 3 2 0.4170 2.4971 4.2193 3.4751

Bonds

1 1 1 2
2 1 1 3
3 1 4 5
4 1 4 6
5 1 7 8
6 1 7 9

Angles

1 1 2 1 3
2 1 5 4 6
3 1 8 7 9

