LAMMPS Description # full

3 atoms
2 bonds
1 angles
0 dihedrals
0 impropers

2 atom types
1 bond types
1 angle types
0 dihedral types
0 improper types

-13.16 13.24 xlo xhi # 0.00 3.91
-10.98 15.42 ylo yhi # 0.00 3.91
-10.97 15.43 zlo zhi # 0.00 3.91

Masses

1 15.999 # O Water (SPC) O 79
2 1.008 # H Water (SPC) H 80

Pair Coeffs

1 0.1554 3.1656
2 0.0000 0.0000

Bond Coeffs

1  527.2 1.0

Angle Coeffs

1 37.95 109.47

Atoms

1 1 1 -0.8200 0.140 2.544 2.331
2 1 2 0.4100 -0.004 2.306 1.371
3 1 2 0.4100 -0.018 1.803 2.984

Bonds

1 1 1 2
2 1 1 3

Angles

1 1 2 1 3

