LAMMPS Description # full

3 atoms
2 bonds
1 angles
0 dihedrals
0 impropers

2 atom types
1 bond types
1 angle types
0 dihedral types
0 improper types

-1.75 2.94 xlo xhi # 0.00 3.91
1.04 5.74 ylo yhi # 0.00 3.91
0.59 5.29 zlo zhi # 0.00 3.91

Masses

1 15.9990 # O Water (SPC) O 79 #
2 1.0080 # H Water (SPC) H 80 #

Pair Coeffs

1 0.1554 3.1656
2 0.0000 0.0000

Bond Coeffs

1 527.2 1.0

Angle Coeffs

1 37.95 109.47

Atoms

1 1 1 -0.8200 0.4091 3.1026 3.0456
2 1 2 0.4100 0.2802 3.5148 2.1436
3 1 2 0.4100 1.0875 3.5511 3.6275

Bonds

1 1 1 2
2 1 1 3

Angles

1 1 2 1 3

