LAMMPS Description

123 atoms
0 bonds
0 angles
0 dihedrals
0 impropers

1 atom types
0 bond types
0 angle types
0 dihedral types
0 improper types

-2.94 22.42 xlo xhi
-2.79 22.57 ylo yhi
-2.59 22.77 zlo zhi

Masses

1 39.948 # Argon Atom Ar 211

Pair Coeffs

1 0.2340 3.4010

Atoms

1 1 1 0.0000 8.078 15.965 14.745
2 2 1 0.0000 10.500 17.307 21.999
3 3 1 0.0000 9.232 -2.371 19.720
4 4 1 0.0000 -2.326 21.194 4.414
5 5 1 0.0000 19.125 9.724 -0.469
6 6 1 0.0000 19.662 8.951 13.605
7 7 1 0.0000 10.110 -1.996 11.414
8 8 1 0.0000 2.179 -1.085 5.915
9 9 1 0.0000 3.890 2.232 21.259
10 10 1 0.0000 14.805 -2.295 17.345
11 11 1 0.0000 18.243 18.445 14.328
12 12 1 0.0000 19.540 16.419 22.655
13 13 1 0.0000 4.516 5.524 15.509
14 14 1 0.0000 -0.770 18.147 22.049
15 15 1 0.0000 -1.459 21.244 12.830
16 16 1 0.0000 9.166 16.288 7.824
17 17 1 0.0000 0.417 6.030 7.485
18 18 1 0.0000 4.350 5.651 3.121
19 19 1 0.0000 9.693 4.317 19.776
20 20 1 0.0000 11.535 21.069 17.230
21 21 1 0.0000 2.746 18.554 3.669
22 22 1 0.0000 19.453 1.093 3.219
23 23 1 0.0000 15.409 -0.345 20.104
24 24 1 0.0000 18.811 15.998 3.297
25 25 1 0.0000 6.523 4.721 6.502
26 26 1 0.0000 18.597 18.038 9.356
27 27 1 0.0000 13.407 -2.304 4.842
28 28 1 0.0000 9.786 11.881 17.019
29 29 1 0.0000 20.585 2.663 19.644
30 30 1 0.0000 12.784 -1.269 12.958
31 31 1 0.0000 7.992 23.232 10.279
32 32 1 0.0000 22.910 20.368 6.286
33 33 1 0.0000 14.023 3.659 4.074
34 34 1 0.0000 -2.605 13.996 6.231
35 35 1 0.0000 -1.028 7.098 15.194
36 36 1 0.0000 1.148 11.750 19.538
37 37 1 0.0000 0.402 14.314 10.050
38 38 1 0.0000 4.668 6.920 22.211
39 39 1 0.0000 9.187 2.119 13.154
40 40 1 0.0000 20.125 -1.797 13.531
41 41 1 0.0000 20.672 22.590 16.464
42 42 1 0.0000 12.118 5.767 13.389
43 43 1 0.0000 9.351 21.835 1.322
44 44 1 0.0000 14.199 7.562 22.250
45 45 1 0.0000 10.386 1.415 -2.356
46 46 1 0.0000 4.180 7.065 9.192
47 47 1 0.0000 4.113 20.889 5.961
48 48 1 0.0000 9.468 11.362 -0.122
49 49 1 0.0000 16.389 -0.733 6.432
50 50 1 0.0000 0.725 8.528 4.016
51 51 1 0.0000 -2.880 -0.345 11.973
52 52 1 0.0000 0.524 21.492 15.877
53 53 1 0.0000 6.070 10.278 -2.080
54 54 1 0.0000 0.363 -1.621 16.704
55 55 1 0.0000 13.892 21.323 -0.383
56 56 1 0.0000 14.339 11.247 6.894
57 57 1 0.0000 22.430 -1.150 7.829
58 58 1 0.0000 -0.755 4.258 21.650
59 59 1 0.0000 22.161 23.361 22.515
60 60 1 0.0000 14.301 4.138 8.237
61 61 1 0.0000 -1.260 -0.457 15.910
62 62 1 0.0000 15.592 7.827 14.962
63 63 1 0.0000 5.788 11.666 4.071
64 64 1 0.0000 1.717 21.014 19.133
65 65 1 0.0000 -2.383 0.542 -0.237
66 66 1 0.0000 17.115 0.288 8.554
67 67 1 0.0000 10.000 0.092 14.851
68 68 1 0.0000 12.969 14.905 18.871
69 69 1 0.0000 21.334 4.169 17.988
70 70 1 0.0000 21.507 13.933 17.176
71 71 1 0.0000 1.017 19.977 12.297
72 72 1 0.0000 22.207 7.846 8.725
73 73 1 0.0000 19.257 6.994 9.169
74 74 1 0.0000 2.765 15.531 11.078
75 75 1 0.0000 14.835 14.952 1.644
76 76 1 0.0000 0.904 -0.408 0.907
77 77 1 0.0000 3.118 16.292 15.518
78 78 1 0.0000 12.437 13.126 7.042
79 79 1 0.0000 21.044 10.243 -0.219
80 80 1 0.0000 5.669 1.217 -0.970
81 81 1 0.0000 10.920 20.655 11.028
82 82 1 0.0000 7.276 10.123 10.340
83 83 1 0.0000 7.543 7.623 21.982
84 84 1 0.0000 5.763 11.949 11.361
85 85 1 0.0000 -1.661 10.685 -1.198
86 86 1 0.0000 4.845 22.043 17.520
87 87 1 0.0000 5.780 -1.919 14.629
88 88 1 0.0000 2.133 8.743 17.104
89 89 1 0.0000 -1.133 13.504 -2.259
90 90 1 0.0000 14.723 15.622 9.732
91 91 1 0.0000 8.725 5.579 3.886
92 92 1 0.0000 2.764 13.938 -1.020
93 93 1 0.0000 12.689 11.416 18.999
94 94 1 0.0000 7.363 16.515 20.771
95 95 1 0.0000 10.498 4.003 -1.072
96 96 1 0.0000 21.241 10.777 5.974
97 97 1 0.0000 17.079 23.117 -0.587
98 98 1 0.0000 17.199 1.978 16.098
99 99 1 0.0000 18.155 7.050 21.940
100 100 1 0.0000 6.518 13.145 -1.347
101 101 1 0.0000 4.146 -2.490 9.720
102 102 1 0.0000 14.773 16.652 20.203
103 103 1 0.0000 5.079 12.411 0.737
104 104 1 0.0000 -0.199 -0.326 9.133
105 105 1 0.0000 12.675 0.850 -0.381
106 106 1 0.0000 22.822 12.682 15.575
107 107 1 0.0000 8.862 21.596 17.062
108 108 1 0.0000 10.879 17.792 12.001
109 109 1 0.0000 22.689 1.619 1.736
110 110 1 0.0000 13.079 20.602 12.013
111 111 1 0.0000 20.623 14.369 6.445
112 112 1 0.0000 -0.841 -1.191 12.756
113 113 1 0.0000 10.057 8.471 0.060
114 114 1 0.0000 4.879 15.267 0.862
115 115 1 0.0000 7.964 19.107 1.656
116 116 1 0.0000 11.392 15.483 3.748
117 117 1 0.0000 2.952 12.248 14.560
118 118 1 0.0000 0.406 20.798 4.966
119 119 1 0.0000 17.894 -1.679 17.019
120 120 1 0.0000 15.750 10.698 -0.221
121 121 1 0.0000 2.385 2.788 9.392
122 122 1 0.0000 17.872 20.304 1.869
123 123 1 0.0000 10.427 1.662 -0.169

