ITEM: TIMESTEP
0
ITEM: NUMBER OF ATOMS
64
ITEM: BOX BOUNDS xy xz yz pp pp pp
0.0000000000000000e+00 1.0861400000000000e+01 0.0000000000000000e+00
0.0000000000000000e+00 1.0861400000000000e+01 0.0000000000000000e+00
0.0000000000000000e+00 1.0861400000000000e+01 0.0000000000000000e+00
ITEM: ATOMS id xu yu zu fx fy fz
1    0.010000000000000    0.000000000000000    0.000000000000000   -0.171726775846481    0.005456716463243    0.005456716463243
3    0.000000000000000    2.715000000000000    2.715000000000000    0.002510423401697    0.008003154472394    0.008003154472394
9    1.358000000000000    1.358000000000000    1.358000000000000    0.036639124732239    0.019650776098706    0.019650776098706
17    2.715000000000000    0.000000000000000    2.715000000000000    0.010134298001620    0.006792896740380    0.010143783931325
19    2.715000000000000    2.715000000000000    0.000000000000000    0.010134298001618    0.010143783931328    0.006792896740378
33    5.431000000000000    0.000000000000000    0.000000000000000   -0.009425372177116    0.005374969400302    0.005374969400302
35    5.431000000000000    2.715000000000000    2.715000000000000   -0.009431774836648    0.009431774836649    0.009431774836649
41    6.787999999999999    1.358000000000000    1.358000000000000    0.009433114611714   -0.009263143672122   -0.009263143672122
49    8.146000000000001    0.000000000000000    2.715000000000000    0.000808013617591    0.006769431058580    0.008727758881533
51    8.146000000000001    2.715000000000000    0.000000000000000    0.000808013617588    0.008727758881541    0.006769431058583
5    0.000000000000000    5.431000000000000    0.000000000000000    0.005374969400302   -0.009425372177116    0.005374969400302
13    1.358000000000000    6.787999999999999    1.358000000000000   -0.009263143672122    0.009433114611714   -0.009263143672122
21    2.715000000000000    5.431000000000000    2.715000000000000    0.009431774836649   -0.009431774836648    0.009431774836649
27    4.073000000000000    4.073000000000000    1.358000000000000   -0.000000000000008   -0.000000000000008   -0.009247571396171
37    5.431000000000000    5.431000000000000    0.000000000000000   -0.009419162810083   -0.009419162810083    0.005365018142624
45    6.787999999999999    6.787999999999999    1.358000000000000    0.009418673126229    0.009418673126229   -0.009249676499448
53    8.146000000000001    5.431000000000000    2.715000000000000    0.000119363003614   -0.009420881205875    0.009420881205876
59    9.504000000000000    4.073000000000000    1.358000000000000   -0.005651384092696    0.000004137844639   -0.009249925947736
7    0.000000000000000    8.146000000000001    2.715000000000000    0.002571473909822   -0.001303420448009    0.010833017945088
23    2.715000000000000    8.146000000000001    0.000000000000000    0.010132752797423   -0.000611132021263    0.003942839868955
31    4.073000000000000    9.504000000000000    1.358000000000000    0.000004137844639   -0.005651384092696   -0.009249925947736
39    5.431000000000000    8.146000000000001    2.715000000000000   -0.009420881205875    0.000119363003614    0.009420881205876
55    8.146000000000001    8.146000000000001    0.000000000000000    0.000813595870736    0.000806823674804    0.003966229181873
63    9.504000000000000    9.504000000000000    1.358000000000000    0.039808533710404    0.022871154690750   -0.037791248828625
2    0.000000000000000    0.000000000000000    5.431000000000000    0.005374969400302    0.005374969400302   -0.009425372177111
10    1.358000000000000    1.358000000000000    6.787999999999999   -0.009263143672125   -0.009263143672125    0.009433114611711
20    2.715000000000000    2.715000000000000    5.431000000000000    0.009431774836649    0.009431774836649   -0.009431774836648
25    4.073000000000000    1.358000000000000    4.073000000000000   -0.000000000000008   -0.009247571396171   -0.000000000000008
34    5.431000000000000    0.000000000000000    5.431000000000000   -0.009419162810083    0.005365018142624   -0.009419162810083
42    6.787999999999999    1.358000000000000    6.787999999999999    0.009418673126228   -0.009249676499442    0.009418673126228
52    8.146000000000001    2.715000000000000    5.431000000000000    0.000119363003609    0.009420881205876   -0.009420881205869
57    9.504000000000000    1.358000000000000    4.073000000000000   -0.005651384092691   -0.009249925947736    0.000004137844639
6    0.000000000000000    5.431000000000000    5.431000000000000    0.005365018142624   -0.009419162810083   -0.009419162810083
11    1.358000000000000    4.073000000000000    4.073000000000000   -0.009247571396171   -0.000000000000008   -0.000000000000008
14    1.358000000000000    6.787999999999999    6.787999999999999   -0.009249676499442    0.009418673126228    0.009418673126228
28    4.073000000000000    4.073000000000000    6.787999999999999   -0.000000000000008   -0.000000000000008    0.009417352664959
29    4.073000000000000    6.787999999999999    4.073000000000000   -0.000000000000008    0.009417352664964   -0.000000000000008
38    5.431000000000000    5.431000000000000    5.431000000000000   -0.009431774836645   -0.009431774836645   -0.009431774836645
43    6.787999999999999    4.073000000000000    4.073000000000000    0.009417352664964   -0.000000000000008   -0.000000000000008
46    6.787999999999999    6.787999999999999    6.787999999999999    0.009431774836663    0.009431774836663    0.009431774836663
60    9.504000000000000    4.073000000000000    6.787999999999999   -0.005651254337807   -0.000003841964445    0.009419464823573
61    9.504000000000000    6.787999999999999    4.073000000000000   -0.005651254337807    0.009419464823573   -0.000003841964444
15    1.358000000000000    9.504000000000000    4.073000000000000   -0.009249925947736   -0.005651384092691    0.000004137844639
24    2.715000000000000    8.146000000000001    5.431000000000000    0.009420881205876    0.000119363003609   -0.009420881205869
32    4.073000000000000    9.504000000000000    6.787999999999999   -0.000003841964445   -0.005651254337807    0.009419464823573
47    6.787999999999999    9.504000000000000    4.073000000000000    0.009419464823570   -0.005651254337810   -0.000003841964441
56    8.146000000000001    8.146000000000001    5.431000000000000    0.000112767523454    0.000112767523454   -0.009417028505261
64    9.504000000000000    9.504000000000000    6.787999999999999   -0.005656368447836   -0.005656368447836    0.009423885789823
4    0.000000000000000    2.715000000000000    8.146000000000001    0.002571473909827    0.010833017945094   -0.001303420448009
18    2.715000000000000    0.000000000000000    8.146000000000001    0.010132752797423    0.003942839868955   -0.000611132021263
26    4.073000000000000    1.358000000000000    9.504000000000000    0.000004137844636   -0.009249925947739   -0.005651384092694
36    5.431000000000000    2.715000000000000    8.146000000000001   -0.009420881205866    0.009420881205873    0.000119363003611
50    8.146000000000001    0.000000000000000    8.146000000000001    0.000813595870742    0.003966229181873    0.000806823674798
58    9.504000000000000    1.358000000000000    9.504000000000000    0.039808533710404   -0.037791248828630    0.022871154690750
12    1.358000000000000    4.073000000000000    9.504000000000000   -0.009249925947737    0.000004137844634   -0.005651384092691
22    2.715000000000000    5.431000000000000    8.146000000000001    0.009420881205873   -0.009420881205866    0.000119363003611
30    4.073000000000000    6.787999999999999    9.504000000000000   -0.000003841964444    0.009419464823573   -0.005651254337807
44    6.787999999999999    4.073000000000000    9.504000000000000    0.009419464823573   -0.000003841964444   -0.005651254337807
54    8.146000000000001    5.431000000000000    8.146000000000001    0.000112767523454   -0.009417028505261    0.000112767523454
62    9.504000000000000    6.787999999999999    9.504000000000000   -0.005656368447835    0.009423885789823   -0.005656368447842
8    0.000000000000000    8.146000000000001    8.146000000000001    0.002511903024279    0.001526644766156    0.001526644766156
16    1.358000000000000    9.504000000000000    9.504000000000000    0.036687902507126   -0.034625512841834   -0.034625512841834
40    5.431000000000000    8.146000000000001    8.146000000000001   -0.009417028505261    0.000112767523454    0.000112767523454
48    6.787999999999999    9.504000000000000    9.504000000000000    0.009423885789823   -0.005656368447842   -0.005656368447835
