ITEM: TIMESTEP
0
ITEM: NUMBER OF ATOMS
216
ITEM: BOX BOUNDS xy xz yz pp pp pp
0.0000000000000000e+00 1.6295700000000000e+01 0.0000000000000000e+00
0.0000000000000000e+00 1.6295700000000000e+01 0.0000000000000000e+00
0.0000000000000000e+00 1.6295700000000000e+01 0.0000000000000000e+00
ITEM: ATOMS id xu yu zu fx fy fz
1    0.010000000000000    0.000000000000000    0.000000000000000   -0.174165831462974    0.002863499452966    0.002863499452986
4    0.000000000000000    2.715999999999999    2.715999999999999   -0.000029411531977   -0.001410996441749   -0.001410996441739
19    1.357999999999999    1.357999999999999    1.357999999999999    0.045968115829372    0.028994685764830    0.028994685764829
37    2.715999999999999    0.000000000000000    2.715999999999999    0.000711896246914    0.004247360153681    0.000719789247594
40    2.715999999999999    2.715999999999999    0.000000000000000    0.000711896246914    0.000719789247594    0.004247360153676
73    5.431999999999998    0.000000000000000    0.000000000000000   -0.000000575850891    0.002823835260672    0.002823835260672
76    5.431999999999998    2.715999999999999    2.715999999999999    0.000000000000043    0.000000000000014    0.000000000000014
91    6.790000000000000    1.357999999999999    1.357999999999999   -0.000000019955989    0.000084658321807    0.000084658321807
109    8.148000000000000    0.000000000000000    2.715999999999999    0.000000000000008    0.002823410416151    0.000000000000011
112    8.148000000000000    2.715999999999999    0.000000000000000    0.000000000000006    0.000000000000014    0.002823410416149
145   10.863999999999995    0.000000000000000    0.000000000000000   -0.000000575850851    0.002823835260675    0.002823835260669
148   10.863999999999995    2.715999999999999    2.715999999999999    0.000000000000080    0.000000000000014    0.000000000000014
163   12.222000000000000    1.357999999999999    1.357999999999999   -0.000000019956002    0.000084658321807    0.000084658321807
181   13.580000000000000    0.000000000000000    2.715999999999999    0.000613441348594    0.004220626533073   -0.000689995673825
184   13.580000000000000    2.715999999999999    0.000000000000000    0.000613441348591   -0.000689995673822    0.004220626533070
7    0.000000000000000    5.431999999999998    0.000000000000000    0.002823835260675   -0.000000575850894    0.002823835260675
43    2.715999999999999    5.431999999999998    2.715999999999999    0.000000000000014    0.000000000000043    0.000000000000014
58    4.074000000000000    4.074000000000000    1.357999999999999   -0.000000000000029   -0.000000000000029    0.000084641474543
79    5.431999999999998    5.431999999999998    0.000000000000000    0.000000000000043    0.000000000000043    0.002823410416148
115    8.148000000000000    5.431999999999998    2.715999999999999    0.000000000000005    0.000000000000037    0.000000000000013
130    9.506000000000000    4.074000000000000    1.357999999999999   -0.000000000000049   -0.000000000000028    0.000084641474542
151   10.863999999999995    5.431999999999998    0.000000000000000    0.000000000000080    0.000000000000042    0.002823410416148
187   13.580000000000000    5.431999999999998    2.715999999999999   -0.000084641474593    0.000000000000042    0.000000000000014
202   14.937999999999995    4.074000000000000    1.357999999999999   -0.002823442864801    0.000000073906720    0.000084637110693
10    0.000000000000000    8.148000000000000    2.715999999999999    0.002823410416152    0.000000000000003    0.000000000000016
25    1.357999999999999    6.790000000000000    1.357999999999999    0.000084658321807   -0.000000019955989    0.000084658321807
46    2.715999999999999    8.148000000000000    0.000000000000000    0.000000000000014    0.000000000000006    0.002823410416149
64    4.074000000000000    9.506000000000000    1.357999999999999   -0.000000000000028   -0.000000000000049    0.000084641474542
82    5.431999999999998    8.148000000000000    2.715999999999999    0.000000000000037    0.000000000000005    0.000000000000013
97    6.790000000000000    6.790000000000000    1.357999999999999   -0.000000000000025   -0.000000000000025    0.000084641474540
118    8.148000000000000    8.148000000000000    0.000000000000000    0.000000000000005    0.000000000000005    0.002823410416148
136    9.506000000000000    9.506000000000000    1.357999999999999   -0.000000000000046   -0.000000000000046    0.000084641474539
154   10.863999999999995    8.148000000000000    2.715999999999999    0.000000000000086    0.000000000000006    0.000000000000014
169   12.222000000000000    6.790000000000000    1.357999999999999   -0.000000000000032   -0.000000000000024    0.000084641474545
190   13.580000000000000    8.148000000000000    0.000000000000000   -0.000084637110747   -0.000000073906739    0.002823442864830
208   14.937999999999995    9.506000000000000    1.357999999999999   -0.002823442864798    0.000000073906701    0.000084637110696
13    0.000000000000000   10.863999999999995    0.000000000000000    0.002823835260675   -0.000000575850856    0.002823835260674
31    1.357999999999999   12.222000000000000    1.357999999999999    0.000084658321807   -0.000000019956002    0.000084658321807
49    2.715999999999999   10.863999999999995    2.715999999999999    0.000000000000014    0.000000000000080    0.000000000000014
85    5.431999999999998   10.863999999999995    0.000000000000000    0.000000000000042    0.000000000000080    0.002823410416148
103    6.790000000000000   12.222000000000000    1.357999999999999   -0.000000000000024   -0.000000000000032    0.000084641474545
121    8.148000000000000   10.863999999999995    2.715999999999999    0.000000000000006    0.000000000000086    0.000000000000014
157   10.863999999999995   10.863999999999995    0.000000000000000    0.000000000000080    0.000000000000080    0.002823410416148
175   12.222000000000000   12.222000000000000    1.357999999999999   -0.000000000000033   -0.000000000000033    0.000084641474546
193   13.580000000000000   10.863999999999995    2.715999999999999   -0.000084641474591    0.000000000000083    0.000000000000010
16    0.000000000000000   13.580000000000000    2.715999999999999    0.000030960433095   -0.001494069077944    0.001409820682531
52    2.715999999999999   13.580000000000000    0.000000000000000    0.000711679154689   -0.000803344543872    0.001399018078645
70    4.074000000000000   14.937999999999995    1.357999999999999    0.000000073906717   -0.002823442864799    0.000084637110696
88    5.431999999999998   13.580000000000000    2.715999999999999    0.000000000000042   -0.000084641474593    0.000000000000014
124    8.148000000000000   13.580000000000000    0.000000000000000   -0.000000073906739   -0.000084637110747    0.002823442864830
142    9.506000000000000   14.937999999999995    1.357999999999999    0.000000073906696   -0.002823442864798    0.000084637110701
160   10.863999999999995   13.580000000000000    2.715999999999999    0.000000000000083   -0.000084641474591    0.000000000000010
196   13.580000000000000   13.580000000000000    0.000000000000000    0.000614615291473    0.000607386286204    0.001425422136428
214   14.937999999999995   14.937999999999995    1.357999999999999    0.042598683230061    0.025677282638364   -0.028423416961450
2    0.000000000000000    0.000000000000000    5.431999999999998    0.002823835260672    0.002823835260672   -0.000000575850891
41    2.715999999999999    2.715999999999999    5.431999999999998    0.000000000000014    0.000000000000014    0.000000000000043
55    4.074000000000000    1.357999999999999    4.074000000000000   -0.000000000000029    0.000084641474543   -0.000000000000029
74    5.431999999999998    0.000000000000000    5.431999999999998    0.000000000000043    0.002823410416154    0.000000000000043
113    8.148000000000000    2.715999999999999    5.431999999999998    0.000000000000005    0.000000000000014    0.000000000000037
127    9.506000000000000    1.357999999999999    4.074000000000000   -0.000000000000053    0.000084641474545   -0.000000000000031
146   10.863999999999995    0.000000000000000    5.431999999999998    0.000000000000086    0.002823410416148    0.000000000000043
185   13.580000000000000    2.715999999999999    5.431999999999998   -0.000084641474594    0.000000000000015    0.000000000000049
199   14.937999999999995    1.357999999999999    4.074000000000000   -0.002823442864793    0.000084637110695    0.000000073906711
8    0.000000000000000    5.431999999999998    5.431999999999998    0.002823410416148    0.000000000000043    0.000000000000043
22    1.357999999999999    4.074000000000000    4.074000000000000    0.000084641474543   -0.000000000000029   -0.000000000000029
80    5.431999999999998    5.431999999999998    5.431999999999998    0.000000000000042    0.000000000000042    0.000000000000043
94    6.790000000000000    4.074000000000000    4.074000000000000   -0.000000000000022   -0.000000000000028   -0.000000000000028
152   10.863999999999995    5.431999999999998    5.431999999999998    0.000000000000086    0.000000000000042    0.000000000000042
166   12.222000000000000    4.074000000000000    4.074000000000000   -0.000000000000033   -0.000000000000025   -0.000000000000031
28    1.357999999999999    9.506000000000000    4.074000000000000    0.000084641474545   -0.000000000000053   -0.000000000000031
47    2.715999999999999    8.148000000000000    5.431999999999998    0.000000000000014    0.000000000000005    0.000000000000037
61    4.074000000000000    6.790000000000000    4.074000000000000   -0.000000000000028   -0.000000000000022   -0.000000000000028
100    6.790000000000000    9.506000000000000    4.074000000000000   -0.000000000000021   -0.000000000000049   -0.000000000000028
119    8.148000000000000    8.148000000000000    5.431999999999998    0.000000000000005    0.000000000000005    0.000000000000042
133    9.506000000000000    6.790000000000000    4.074000000000000   -0.000000000000049   -0.000000000000021   -0.000000000000028
172   12.222000000000000    9.506000000000000    4.074000000000000   -0.000000000000036   -0.000000000000050   -0.000000000000028
191   13.580000000000000    8.148000000000000    5.431999999999998   -0.000084641474593    0.000000000000006    0.000000000000042
205   14.937999999999995    6.790000000000000    4.074000000000000   -0.002823410416109   -0.000000000000025   -0.000000000000031
14    0.000000000000000   10.863999999999995    5.431999999999998    0.002823410416145    0.000000000000084    0.000000000000045
67    4.074000000000000   12.222000000000000    4.074000000000000   -0.000000000000025   -0.000000000000033   -0.000000000000031
86    5.431999999999998   10.863999999999995    5.431999999999998    0.000000000000042    0.000000000000086    0.000000000000042
139    9.506000000000000   12.222000000000000    4.074000000000000   -0.000000000000050   -0.000000000000036   -0.000000000000028
158   10.863999999999995   10.863999999999995    5.431999999999998    0.000000000000083    0.000000000000083    0.000000000000040
211   14.937999999999995   12.222000000000000    4.074000000000000   -0.002823410416107   -0.000000000000033   -0.000000000000031
34    1.357999999999999   14.937999999999995    4.074000000000000    0.000084637110693   -0.002823442864795    0.000000073906713
53    2.715999999999999   13.580000000000000    5.431999999999998    0.000000000000015   -0.000084641474594    0.000000000000049
106    6.790000000000000   14.937999999999995    4.074000000000000   -0.000000000000025   -0.002823410416114   -0.000000000000031
125    8.148000000000000   13.580000000000000    5.431999999999998    0.000000000000006   -0.000084641474593    0.000000000000042
178   12.222000000000000   14.937999999999995    4.074000000000000   -0.000000000000036   -0.002823410416110   -0.000000000000028
197   13.580000000000000   13.580000000000000    5.431999999999998   -0.000084658321858   -0.000084658321858    0.000000019956010
5    0.000000000000000    2.715999999999999    8.148000000000000    0.002823410416152    0.000000000000011    0.000000000000008
20    1.357999999999999    1.357999999999999    6.790000000000000    0.000084658321807    0.000084658321807   -0.000000019955989
38    2.715999999999999    0.000000000000000    8.148000000000000    0.000000000000016    0.002823410416152    0.000000000000003
56    4.074000000000000    1.357999999999999    9.506000000000000   -0.000000000000031    0.000084641474545   -0.000000000000053
77    5.431999999999998    2.715999999999999    8.148000000000000    0.000000000000037    0.000000000000013    0.000000000000005
92    6.790000000000000    1.357999999999999    6.790000000000000   -0.000000000000025    0.000084641474540   -0.000000000000025
110    8.148000000000000    0.000000000000000    8.148000000000000    0.000000000000008    0.002823410416151    0.000000000000002
128    9.506000000000000    1.357999999999999    9.506000000000000   -0.000000000000049    0.000084641474543   -0.000000000000049
149   10.863999999999995    2.715999999999999    8.148000000000000    0.000000000000086    0.000000000000014    0.000000000000006
164   12.222000000000000    1.357999999999999    6.790000000000000   -0.000000000000032    0.000084641474545   -0.000000000000025
182   13.580000000000000    0.000000000000000    8.148000000000000   -0.000084637110742    0.002823442864836   -0.000000073906745
200   14.937999999999995    1.357999999999999    9.506000000000000   -0.002823442864793    0.000084637110696    0.000000073906696
23    1.357999999999999    4.074000000000000    9.506000000000000    0.000084641474545   -0.000000000000031   -0.000000000000053
44    2.715999999999999    5.431999999999998    8.148000000000000    0.000000000000013    0.000000000000037    0.000000000000005
59    4.074000000000000    4.074000000000000    6.790000000000000   -0.000000000000028   -0.000000000000028   -0.000000000000022
95    6.790000000000000    4.074000000000000    9.506000000000000   -0.000000000000021   -0.000000000000028   -0.000000000000049
116    8.148000000000000    5.431999999999998    8.148000000000000    0.000000000000005    0.000000000000042    0.000000000000005
131    9.506000000000000    4.074000000000000    6.790000000000000   -0.000000000000049   -0.000000000000028   -0.000000000000021
167   12.222000000000000    4.074000000000000    9.506000000000000   -0.000000000000036   -0.000000000000027   -0.000000000000050
188   13.580000000000000    5.431999999999998    8.148000000000000   -0.000084641474593    0.000000000000042    0.000000000000006
203   14.937999999999995    4.074000000000000    6.790000000000000   -0.002823410416111   -0.000000000000028   -0.000000000000027
11    0.000000000000000    8.148000000000000    8.148000000000000    0.002823410416151    0.000000000000002    0.000000000000008
26    1.357999999999999    6.790000000000000    6.790000000000000    0.000084641474540   -0.000000000000025   -0.000000000000025
29    1.357999999999999    9.506000000000000    9.506000000000000    0.000084641474543   -0.000000000000049   -0.000000000000049
62    4.074000000000000    6.790000000000000    9.506000000000000   -0.000000000000028   -0.000000000000021   -0.000000000000049
65    4.074000000000000    9.506000000000000    6.790000000000000   -0.000000000000028   -0.000000000000049   -0.000000000000021
83    5.431999999999998    8.148000000000000    8.148000000000000    0.000000000000042    0.000000000000005    0.000000000000005
98    6.790000000000000    6.790000000000000    6.790000000000000   -0.000000000000024   -0.000000000000024   -0.000000000000024
101    6.790000000000000    9.506000000000000    9.506000000000000   -0.000000000000028   -0.000000000000049   -0.000000000000049
134    9.506000000000000    6.790000000000000    9.506000000000000   -0.000000000000049   -0.000000000000028   -0.000000000000049
137    9.506000000000000    9.506000000000000    6.790000000000000   -0.000000000000049   -0.000000000000049   -0.000000000000022
155   10.863999999999995    8.148000000000000    8.148000000000000    0.000000000000083    0.000000000000009    0.000000000000003
170   12.222000000000000    6.790000000000000    6.790000000000000   -0.000000000000032   -0.000000000000025   -0.000000000000025
173   12.222000000000000    9.506000000000000    9.506000000000000   -0.000000000000030   -0.000000000000049   -0.000000000000049
206   14.937999999999995    6.790000000000000    9.506000000000000   -0.002823410416109   -0.000000000000025   -0.000000000000046
209   14.937999999999995    9.506000000000000    6.790000000000000   -0.002823410416111   -0.000000000000044   -0.000000000000027
32    1.357999999999999   12.222000000000000    6.790000000000000    0.000084641474545   -0.000000000000032   -0.000000000000025
50    2.715999999999999   10.863999999999995    8.148000000000000    0.000000000000014    0.000000000000086    0.000000000000006
68    4.074000000000000   12.222000000000000    9.506000000000000   -0.000000000000027   -0.000000000000036   -0.000000000000050
104    6.790000000000000   12.222000000000000    6.790000000000000   -0.000000000000025   -0.000000000000032   -0.000000000000025
122    8.148000000000000   10.863999999999995    8.148000000000000    0.000000000000009    0.000000000000083    0.000000000000003
140    9.506000000000000   12.222000000000000    9.506000000000000   -0.000000000000049   -0.000000000000030   -0.000000000000049
176   12.222000000000000   12.222000000000000    6.790000000000000   -0.000000000000033   -0.000000000000033   -0.000000000000024
194   13.580000000000000   10.863999999999995    8.148000000000000   -0.000084641474593    0.000000000000081    0.000000000000005
212   14.937999999999995   12.222000000000000    9.506000000000000   -0.002823410416109   -0.000000000000033   -0.000000000000046
17    0.000000000000000   13.580000000000000    8.148000000000000    0.002823442864836   -0.000084637110747   -0.000000073906740
35    1.357999999999999   14.937999999999995    9.506000000000000    0.000084637110696   -0.002823442864798    0.000000073906696
71    4.074000000000000   14.937999999999995    6.790000000000000   -0.000000000000033   -0.002823410416111   -0.000000000000022
89    5.431999999999998   13.580000000000000    8.148000000000000    0.000000000000042   -0.000084641474593    0.000000000000006
107    6.790000000000000   14.937999999999995    9.506000000000000   -0.000000000000024   -0.002823410416114   -0.000000000000047
143    9.506000000000000   14.937999999999995    6.790000000000000   -0.000000000000049   -0.002823410416111   -0.000000000000022
161   10.863999999999995   13.580000000000000    8.148000000000000    0.000000000000081   -0.000084641474593    0.000000000000005
179   12.222000000000000   14.937999999999995    9.506000000000000   -0.000000000000032   -0.002823410416114   -0.000000000000047
215   14.937999999999995   14.937999999999995    6.790000000000000   -0.002823835260635   -0.002823835260630    0.000000575850912
3    0.000000000000000    0.000000000000000   10.863999999999995    0.002823835260669    0.002823835260675   -0.000000575850851
21    1.357999999999999    1.357999999999999   12.222000000000000    0.000084658321807    0.000084658321807   -0.000000019956002
42    2.715999999999999    2.715999999999999   10.863999999999995    0.000000000000014    0.000000000000014    0.000000000000080
75    5.431999999999998    0.000000000000000   10.863999999999995    0.000000000000043    0.002823410416148    0.000000000000087
93    6.790000000000000    1.357999999999999   12.222000000000000   -0.000000000000025    0.000084641474545   -0.000000000000032
114    8.148000000000000    2.715999999999999   10.863999999999995    0.000000000000006    0.000000000000014    0.000000000000086
147   10.863999999999995    0.000000000000000   10.863999999999995    0.000000000000083    0.002823410416152    0.000000000000083
165   12.222000000000000    1.357999999999999   12.222000000000000   -0.000000000000030    0.000084641474543   -0.000000000000036
186   13.580000000000000    2.715999999999999   10.863999999999995   -0.000084641474594    0.000000000000013    0.000000000000086
9    0.000000000000000    5.431999999999998   10.863999999999995    0.002823410416145    0.000000000000045    0.000000000000084
60    4.074000000000000    4.074000000000000   12.222000000000000   -0.000000000000028   -0.000000000000028   -0.000000000000035
81    5.431999999999998    5.431999999999998   10.863999999999995    0.000000000000042    0.000000000000042    0.000000000000086
132    9.506000000000000    4.074000000000000   12.222000000000000   -0.000000000000050   -0.000000000000027   -0.000000000000036
153   10.863999999999995    5.431999999999998   10.863999999999995    0.000000000000083    0.000000000000040    0.000000000000083
204   14.937999999999995    4.074000000000000   12.222000000000000   -0.002823410416110   -0.000000000000028   -0.000000000000036
27    1.357999999999999    6.790000000000000   12.222000000000000    0.000084641474545   -0.000000000000025   -0.000000000000032
48    2.715999999999999    8.148000000000000   10.863999999999995    0.000000000000014    0.000000000000006    0.000000000000086
66    4.074000000000000    9.506000000000000   12.222000000000000   -0.000000000000027   -0.000000000000050   -0.000000000000036
99    6.790000000000000    6.790000000000000   12.222000000000000   -0.000000000000025   -0.000000000000025   -0.000000000000032
120    8.148000000000000    8.148000000000000   10.863999999999995    0.000000000000006    0.000000000000006    0.000000000000086
138    9.506000000000000    9.506000000000000   12.222000000000000   -0.000000000000049   -0.000000000000049   -0.000000000000030
171   12.222000000000000    6.790000000000000   12.222000000000000   -0.000000000000033   -0.000000000000024   -0.000000000000033
192   13.580000000000000    8.148000000000000   10.863999999999995   -0.000084641474593    0.000000000000005    0.000000000000081
210   14.937999999999995    9.506000000000000   12.222000000000000   -0.002823410416111   -0.000000000000044   -0.000000000000035
15    0.000000000000000   10.863999999999995   10.863999999999995    0.002823410416146    0.000000000000083    0.000000000000083
33    1.357999999999999   12.222000000000000   12.222000000000000    0.000084641474543   -0.000000000000030   -0.000000000000036
87    5.431999999999998   10.863999999999995   10.863999999999995    0.000000000000040    0.000000000000083    0.000000000000083
105    6.790000000000000   12.222000000000000   12.222000000000000   -0.000000000000024   -0.000000000000033   -0.000000000000033
159   10.863999999999995   10.863999999999995   10.863999999999995    0.000000000000083    0.000000000000083    0.000000000000083
177   12.222000000000000   12.222000000000000   12.222000000000000   -0.000000000000033   -0.000000000000033   -0.000000000000033
54    2.715999999999999   13.580000000000000   10.863999999999995    0.000000000000013   -0.000084641474594    0.000000000000086
72    4.074000000000000   14.937999999999995   12.222000000000000   -0.000000000000031   -0.002823410416107   -0.000000000000033
126    8.148000000000000   13.580000000000000   10.863999999999995    0.000000000000005   -0.000084641474593    0.000000000000081
144    9.506000000000000   14.937999999999995   12.222000000000000   -0.000000000000049   -0.002823410416112   -0.000000000000030
198   13.580000000000000   13.580000000000000   10.863999999999995   -0.000084658321858   -0.000084658321858    0.000000019956047
216   14.937999999999995   14.937999999999995   12.222000000000000   -0.002823835260632   -0.002823835260632    0.000000575850901
6    0.000000000000000    2.715999999999999   13.580000000000000    0.000030960433096    0.001409820682525   -0.001494069077938
39    2.715999999999999    0.000000000000000   13.580000000000000    0.000711679154692    0.001399018078647   -0.000803344543875
57    4.074000000000000    1.357999999999999   14.937999999999995    0.000000073906711    0.000084637110695   -0.002823442864793
78    5.431999999999998    2.715999999999999   13.580000000000000    0.000000000000048    0.000000000000015   -0.000084641474594
111    8.148000000000000    0.000000000000000   13.580000000000000   -0.000000073906740    0.002823442864836   -0.000084637110746
129    9.506000000000000    1.357999999999999   14.937999999999995    0.000000073906696    0.000084637110696   -0.002823442864793
150   10.863999999999995    2.715999999999999   13.580000000000000    0.000000000000083    0.000000000000017   -0.000084641474591
183   13.580000000000000    0.000000000000000   13.580000000000000    0.000614615291470    0.001425422136432    0.000607386286201
201   14.937999999999995    1.357999999999999   14.937999999999995    0.042598683230056   -0.028423416961434    0.025677282638354
24    1.357999999999999    4.074000000000000   14.937999999999995    0.000084637110695    0.000000073906711   -0.002823442864793
45    2.715999999999999    5.431999999999998   13.580000000000000    0.000000000000015    0.000000000000048   -0.000084641474594
96    6.790000000000000    4.074000000000000   14.937999999999995   -0.000000000000025   -0.000000000000031   -0.002823410416109
117    8.148000000000000    5.431999999999998   13.580000000000000    0.000000000000006    0.000000000000042   -0.000084641474593
168   12.222000000000000    4.074000000000000   14.937999999999995   -0.000000000000033   -0.000000000000031   -0.002823410416107
189   13.580000000000000    5.431999999999998   13.580000000000000   -0.000084658321858    0.000000019956010   -0.000084658321858
12    0.000000000000000    8.148000000000000   13.580000000000000    0.002823442864836   -0.000000073906745   -0.000084637110742
30    1.357999999999999    9.506000000000000   14.937999999999995    0.000084637110696    0.000000073906696   -0.002823442864793
63    4.074000000000000    6.790000000000000   14.937999999999995   -0.000000000000031   -0.000000000000025   -0.002823410416109
84    5.431999999999998    8.148000000000000   13.580000000000000    0.000000000000042    0.000000000000006   -0.000084641474593
102    6.790000000000000    9.506000000000000   14.937999999999995   -0.000000000000025   -0.000000000000046   -0.002823410416109
135    9.506000000000000    6.790000000000000   14.937999999999995   -0.000000000000046   -0.000000000000025   -0.002823410416109
156   10.863999999999995    8.148000000000000   13.580000000000000    0.000000000000081    0.000000000000005   -0.000084641474593
174   12.222000000000000    9.506000000000000   14.937999999999995   -0.000000000000030   -0.000000000000049   -0.002823410416105
207   14.937999999999995    6.790000000000000   14.937999999999995   -0.002823835260635    0.000000575850917   -0.002823835260635
51    2.715999999999999   10.863999999999995   13.580000000000000    0.000000000000017    0.000000000000083   -0.000084641474591
69    4.074000000000000   12.222000000000000   14.937999999999995   -0.000000000000031   -0.000000000000033   -0.002823410416107
123    8.148000000000000   10.863999999999995   13.580000000000000    0.000000000000005    0.000000000000081   -0.000084641474593
141    9.506000000000000   12.222000000000000   14.937999999999995   -0.000000000000049   -0.000000000000030   -0.002823410416105
195   13.580000000000000   10.863999999999995   13.580000000000000   -0.000084658321858    0.000000019956047   -0.000084658321858
213   14.937999999999995   12.222000000000000   14.937999999999995   -0.002823835260638    0.000000575850906   -0.002823835260631
18    0.000000000000000   13.580000000000000   13.580000000000000   -0.000029859232143    0.001327448520625    0.001327448520625
36    1.357999999999999   14.937999999999995   14.937999999999995    0.045995309098963   -0.031769642685244   -0.031769642685239
90    5.431999999999998   13.580000000000000   13.580000000000000    0.000000019956010   -0.000084658321858   -0.000084658321858
108    6.790000000000000   14.937999999999995   14.937999999999995    0.000000575850912   -0.002823835260634   -0.002823835260630
162   10.863999999999995   13.580000000000000   13.580000000000000    0.000000019956047   -0.000084658321858   -0.000084658321858
180   12.222000000000000   14.937999999999995   14.937999999999995    0.000000575850904   -0.002823835260635   -0.002823835260629
