LAMMPS (7 Feb 2024 - Development - patch_7Feb2024-18-gc6a8f1fe58)
units metal
atom_style atomic
boundary p p p
read_data dispersion1.lammps
Reading data file ...
  triclinic box = (0 0 0) to (16.2957 16.2957 16.2957) with tilt (0 0 0)
  1 by 1 by 1 MPI processor grid
  reading atoms ...
  216 atoms
  read_data CPU = 0.002 seconds
pair_style sw
pair_coeff * * /Users/tzhang/git/nemd/submodule/alamode/alamode/example/Si_LAMMPS/Si.sw Si
Reading sw potential file /Users/tzhang/git/nemd/submodule/alamode/alamode/example/Si_LAMMPS/Si.sw with DATE: 2007-06-11
dump 1 all custom 1 dispersion1.dump id xu yu zu fx fy fz
dump_modify 1 format float '%20.15f'
run 0
WARNING: No fixes with time integration, atoms won't move (src/verlet.cpp:60)
Neighbor list info ...
  update: every = 1 steps, delay = 0 steps, check = yes
  max neighbors/atom: 2000, page size: 100000
  master list distance cutoff = 5.77118
  ghost atom cutoff = 5.77118
  binsize = 2.88559, bins = 6 6 6
  1 neighbor lists, perpetual/occasional/extra = 1 0 0
  (1) pair sw, perpetual
      attributes: full, newton on
      pair build: full/bin/atomonly
      stencil: full/bin/3d
      bin: standard
Per MPI rank memory allocation (min/avg/max) = 3.093 | 3.093 | 3.093 Mbytes
   Step          Temp          E_pair         E_mol          TotEng         Press     
         0   0             -936.70434      0             -936.70434     -531.61415    
Loop time of 2.191e-06 on 1 procs for 0 steps with 216 atoms

91.3% CPU use with 1 MPI tasks x no OpenMP threads

MPI task timing breakdown:
Section |  min time  |  avg time  |  max time  |%varavg| %total
---------------------------------------------------------------
Pair    | 0          | 0          | 0          |   0.0 |  0.00
Neigh   | 0          | 0          | 0          |   0.0 |  0.00
Comm    | 0          | 0          | 0          |   0.0 |  0.00
Output  | 0          | 0          | 0          |   0.0 |  0.00
Modify  | 0          | 0          | 0          |   0.0 |  0.00
Other   |            | 2.191e-06  |            |       |100.00

Nlocal:            216 ave         216 max         216 min
Histogram: 1 0 0 0 0 0 0 0 0 0
Nghost:            950 ave         950 max         950 min
Histogram: 1 0 0 0 0 0 0 0 0 0
Neighs:              0 ave           0 max           0 min
Histogram: 1 0 0 0 0 0 0 0 0 0
FullNghs:         7344 ave        7344 max        7344 min
Histogram: 1 0 0 0 0 0 0 0 0 0

Total # of neighbors = 7344
Ave neighs/atom = 34
Neighbor list builds = 0
Dangerous builds = 0
Total wall time: 0:00:00
