Disp. Num. 1 ( 0.010000 Angstrom, 1 : +x)

64 atoms

1 atom types

0.0000 10.8614 xlo xhi
0.0000 10.8614 ylo yhi
0.0000 10.8614 zlo zhi
0.0000 0.0000 0.0000 xy xz yz

Masses

1 28.086

Atoms

    1   1   0.010000000000000   0.000000000000000   0.000000000000000
    2   1   0.000000000000000   0.000000000000000   5.431000000000000
    3   1   0.000000000000000   2.715000000000000   2.715000000000000
    4   1   0.000000000000000   2.715000000000000   8.146000000000001
    5   1   0.000000000000000   5.431000000000000   0.000000000000000
    6   1   0.000000000000000   5.431000000000000   5.431000000000000
    7   1   0.000000000000000   8.146000000000001   2.715000000000000
    8   1   0.000000000000000   8.146000000000001   8.146000000000001
    9   1   1.358000000000000   1.358000000000000   1.358000000000000
   10   1   1.358000000000000   1.358000000000000   6.788000000000000
   11   1   1.358000000000000   4.073000000000000   4.073000000000000
   12   1   1.358000000000000   4.073000000000000   9.504000000000000
   13   1   1.358000000000000   6.788000000000000   1.358000000000000
   14   1   1.358000000000000   6.788000000000000   6.788000000000000
   15   1   1.358000000000000   9.504000000000000   4.073000000000000
   16   1   1.358000000000000   9.504000000000000   9.504000000000000
   17   1   2.715000000000000   0.000000000000000   2.715000000000000
   18   1   2.715000000000000   0.000000000000000   8.146000000000001
   19   1   2.715000000000000   2.715000000000000   0.000000000000000
   20   1   2.715000000000000   2.715000000000000   5.431000000000000
   21   1   2.715000000000000   5.431000000000000   2.715000000000000
   22   1   2.715000000000000   5.431000000000000   8.146000000000001
   23   1   2.715000000000000   8.146000000000001   0.000000000000000
   24   1   2.715000000000000   8.146000000000001   5.431000000000000
   25   1   4.073000000000000   1.358000000000000   4.073000000000000
   26   1   4.073000000000000   1.358000000000000   9.504000000000000
   27   1   4.073000000000000   4.073000000000000   1.358000000000000
   28   1   4.073000000000000   4.073000000000000   6.788000000000000
   29   1   4.073000000000000   6.788000000000000   4.073000000000000
   30   1   4.073000000000000   6.788000000000000   9.504000000000000
   31   1   4.073000000000000   9.504000000000000   1.358000000000000
   32   1   4.073000000000000   9.504000000000000   6.788000000000000
   33   1   5.431000000000000   0.000000000000000   0.000000000000000
   34   1   5.431000000000000   0.000000000000000   5.431000000000000
   35   1   5.431000000000000   2.715000000000000   2.715000000000000
   36   1   5.431000000000000   2.715000000000000   8.146000000000001
   37   1   5.431000000000000   5.431000000000000   0.000000000000000
   38   1   5.431000000000000   5.431000000000000   5.431000000000000
   39   1   5.431000000000000   8.146000000000001   2.715000000000000
   40   1   5.431000000000000   8.146000000000001   8.146000000000001
   41   1   6.788000000000000   1.358000000000000   1.358000000000000
   42   1   6.788000000000000   1.358000000000000   6.788000000000000
   43   1   6.788000000000000   4.073000000000000   4.073000000000000
   44   1   6.788000000000000   4.073000000000000   9.504000000000000
   45   1   6.788000000000000   6.788000000000000   1.358000000000000
   46   1   6.788000000000000   6.788000000000000   6.788000000000000
   47   1   6.788000000000000   9.504000000000000   4.073000000000000
   48   1   6.788000000000000   9.504000000000000   9.504000000000000
   49   1   8.146000000000001   0.000000000000000   2.715000000000000
   50   1   8.146000000000001   0.000000000000000   8.146000000000001
   51   1   8.146000000000001   2.715000000000000   0.000000000000000
   52   1   8.146000000000001   2.715000000000000   5.431000000000000
   53   1   8.146000000000001   5.431000000000000   2.715000000000000
   54   1   8.146000000000001   5.431000000000000   8.146000000000001
   55   1   8.146000000000001   8.146000000000001   0.000000000000000
   56   1   8.146000000000001   8.146000000000001   5.431000000000000
   57   1   9.504000000000000   1.358000000000000   4.073000000000000
   58   1   9.504000000000000   1.358000000000000   9.504000000000000
   59   1   9.504000000000000   4.073000000000000   1.358000000000000
   60   1   9.504000000000000   4.073000000000000   6.788000000000000
   61   1   9.504000000000000   6.788000000000000   4.073000000000000
   62   1   9.504000000000000   6.788000000000000   9.504000000000000
   63   1   9.504000000000000   9.504000000000000   1.358000000000000
   64   1   9.504000000000000   9.504000000000000   6.788000000000000

