LAMMPS Description # full

9 atoms
0 bonds
0 angles
0 dihedrals
0 impropers

4 atom types
0 bond types
0 angle types
0 dihedral types
0 improper types

-6.03 15.97 xlo xhi # 0.00 11.66
-5.26 16.74 ylo yhi # 0.00 11.66
-6.73 15.27 zlo zhi # 0.00 11.66

Masses

1 40.078 # Ca+2 Calcium Ion Ca 203
2 87.62 # Sr+2 Strontium Ion Sr 204
3 137.327 # Ba+2 Barium Ion Ba 205
4 35.453 # Cl- Chloride Ion Cl 207

Pair Coeffs

1 0.4497 2.4120
2 0.1182 3.1027
3 0.0471 3.8166
4 0.1180 4.4172

Atoms

1 1 1 2.0000 7.522 5.771 3.856
2 2 2 2.0000 2.267 6.047 7.715
3 3 3 2.0000 3.454 9.692 8.698
4 4 4 -1.0000 3.464 4.945 0.529
5 5 4 -1.0000 4.487 0.484 6.106
6 6 4 -1.0000 10.405 8.886 0.049
7 7 4 -1.0000 10.333 2.127 0.136
8 8 4 -1.0000 -0.416 6.086 5.779
9 9 4 -1.0000 3.217 7.656 5.571

