LAMMPS Description

1000 atoms
0 bonds
0 angles
0 dihedrals
0 impropers

1 atom types
0 bond types
0 angle types
0 dihedral types
0 improper types

-3.90 47.10 xlo xhi
-4.50 46.50 ylo yhi
-4.42 46.58 zlo zhi

Masses

1 39.948 # Argon Atom Ar 211

Pair Coeffs

1 0.2340 3.4010

Atoms

1 1 1 0.0000 16.324 38.741 16.042
2 2 1 0.0000 -1.197 35.309 37.640
3 3 1 0.0000 33.218 37.567 27.449
4 4 1 0.0000 38.576 15.201 19.069
5 5 1 0.0000 7.492 26.090 38.278
6 6 1 0.0000 12.482 11.777 42.460
7 7 1 0.0000 12.571 21.851 31.609
8 8 1 0.0000 -1.881 6.035 31.554
9 9 1 0.0000 18.132 38.842 35.225
10 10 1 0.0000 31.498 16.597 27.195
11 11 1 0.0000 25.282 24.134 46.304
12 12 1 0.0000 40.696 6.638 41.991
13 13 1 0.0000 -2.733 28.053 -2.984
14 14 1 0.0000 24.902 0.505 32.324
15 15 1 0.0000 18.071 -1.288 6.508
16 16 1 0.0000 38.957 35.511 4.259
17 17 1 0.0000 45.584 20.703 26.433
18 18 1 0.0000 -0.058 15.511 4.008
19 19 1 0.0000 8.644 34.140 40.346
20 20 1 0.0000 20.361 10.536 -2.910
21 21 1 0.0000 16.759 14.636 10.872
22 22 1 0.0000 22.808 29.561 14.617
23 23 1 0.0000 29.451 1.600 3.092
24 24 1 0.0000 31.087 4.904 12.620
25 25 1 0.0000 5.296 29.455 6.303
26 26 1 0.0000 44.019 -1.591 16.430
27 27 1 0.0000 29.671 42.879 41.136
28 28 1 0.0000 -1.997 42.386 23.844
29 29 1 0.0000 32.185 16.051 4.939
30 30 1 0.0000 9.678 17.049 -1.267
31 31 1 0.0000 6.839 41.767 29.102
32 32 1 0.0000 18.144 39.060 -3.219
33 33 1 0.0000 29.826 19.151 33.537
34 34 1 0.0000 39.006 17.764 42.328
35 35 1 0.0000 42.232 45.179 -2.631
36 36 1 0.0000 -9.659 -1.332 -0.164
37 37 1 0.0000 10.837 3.961 14.802
38 38 1 0.0000 8.239 39.908 4.984
39 39 1 0.0000 38.786 21.719 -0.374
40 40 1 0.0000 22.820 33.014 -4.654
41 41 1 0.0000 35.884 31.399 10.876
42 42 1 0.0000 18.419 29.922 0.220
43 43 1 0.0000 -2.494 -2.712 41.808
44 44 1 0.0000 -2.082 19.014 14.418
45 45 1 0.0000 1.740 0.418 42.395
46 46 1 0.0000 16.594 5.861 17.643
47 47 1 0.0000 10.904 45.471 42.929
48 48 1 0.0000 33.549 -1.565 34.884
49 49 1 0.0000 44.186 46.380 -1.067
50 50 1 0.0000 48.305 28.223 31.610
51 51 1 0.0000 0.005 31.102 16.023
52 52 1 0.0000 22.007 22.082 14.326
53 53 1 0.0000 20.919 38.754 41.761
54 54 1 0.0000 25.181 15.247 22.182
55 55 1 0.0000 33.968 40.830 15.481
56 56 1 0.0000 37.093 28.687 34.954
57 57 1 0.0000 21.863 12.874 37.590
58 58 1 0.0000 12.329 27.693 21.374
59 59 1 0.0000 8.236 44.306 24.143
60 60 1 0.0000 19.043 2.025 28.762
61 61 1 0.0000 22.567 38.009 19.726
62 62 1 0.0000 4.765 6.145 18.635
63 63 1 0.0000 22.081 7.578 -3.360
64 64 1 0.0000 18.249 6.823 -2.398
65 65 1 0.0000 12.563 -2.104 45.688
66 66 1 0.0000 30.588 6.530 14.309
67 67 1 0.0000 30.889 41.059 40.415
68 68 1 0.0000 5.827 6.999 1.981
69 69 1 0.0000 7.441 18.341 43.298
70 70 1 0.0000 12.464 8.125 32.459
71 71 1 0.0000 41.124 43.991 29.499
72 72 1 0.0000 26.541 10.387 43.240
73 73 1 0.0000 7.209 30.064 32.205
74 74 1 0.0000 22.283 31.021 0.832
75 75 1 0.0000 18.942 21.038 23.269
76 76 1 0.0000 27.000 13.435 39.990
77 77 1 0.0000 42.289 7.680 1.018
78 78 1 0.0000 49.133 14.757 46.824
79 79 1 0.0000 0.368 44.317 3.753
80 80 1 0.0000 50.141 5.319 6.559
81 81 1 0.0000 32.951 25.216 17.730
82 82 1 0.0000 44.551 37.031 41.061
83 83 1 0.0000 45.927 20.983 2.392
84 84 1 0.0000 29.266 41.486 18.671
85 85 1 0.0000 0.366 6.269 8.116
86 86 1 0.0000 -4.596 22.869 40.111
87 87 1 0.0000 30.881 39.146 45.099
88 88 1 0.0000 19.462 45.621 3.323
89 89 1 0.0000 14.102 28.192 30.299
90 90 1 0.0000 0.390 10.659 27.492
91 91 1 0.0000 45.488 39.166 37.602
92 92 1 0.0000 10.871 17.383 39.430
93 93 1 0.0000 37.045 38.922 12.808
94 94 1 0.0000 29.764 35.895 -2.797
95 95 1 0.0000 26.472 33.814 -0.236
96 96 1 0.0000 4.578 30.744 10.249
97 97 1 0.0000 9.945 27.760 0.420
98 98 1 0.0000 23.355 26.149 25.619
99 99 1 0.0000 42.521 -1.355 39.164
100 100 1 0.0000 45.728 39.645 4.751
101 101 1 0.0000 3.233 28.546 10.711
102 102 1 0.0000 38.052 11.361 14.455
103 103 1 0.0000 32.460 -7.419 1.711
104 104 1 0.0000 38.918 24.410 27.861
105 105 1 0.0000 11.486 14.539 19.721
106 106 1 0.0000 14.789 19.088 9.574
107 107 1 0.0000 29.059 -4.533 19.620
108 108 1 0.0000 0.276 31.260 24.216
109 109 1 0.0000 35.576 22.200 42.496
110 110 1 0.0000 44.026 -4.874 17.640
111 111 1 0.0000 37.188 25.937 47.784
112 112 1 0.0000 33.811 9.789 26.304
113 113 1 0.0000 41.215 21.269 8.056
114 114 1 0.0000 23.244 44.387 26.271
115 115 1 0.0000 40.923 11.867 44.543
116 116 1 0.0000 42.552 30.329 40.491
117 117 1 0.0000 47.962 16.489 35.533
118 118 1 0.0000 -2.679 31.668 18.432
119 119 1 0.0000 2.470 8.890 -1.111
120 120 1 0.0000 39.189 41.651 12.940
121 121 1 0.0000 27.450 -7.213 0.054
122 122 1 0.0000 45.845 45.905 20.559
123 123 1 0.0000 4.497 35.071 12.234
124 124 1 0.0000 32.805 41.277 42.695
125 125 1 0.0000 20.797 22.017 4.207
126 126 1 0.0000 32.795 45.429 -1.658
127 127 1 0.0000 18.776 24.486 31.762
128 128 1 0.0000 7.055 30.102 44.633
129 129 1 0.0000 16.118 3.251 47.341
130 130 1 0.0000 31.627 2.406 13.927
131 131 1 0.0000 -3.966 27.789 -4.594
132 132 1 0.0000 16.148 5.939 40.481
133 133 1 0.0000 13.369 41.855 17.721
134 134 1 0.0000 22.201 1.108 -1.905
135 135 1 0.0000 38.031 6.050 17.853
136 136 1 0.0000 -0.481 -5.103 8.856
137 137 1 0.0000 29.804 23.126 8.159
138 138 1 0.0000 26.065 38.885 2.511
139 139 1 0.0000 5.149 8.336 3.400
140 140 1 0.0000 14.852 32.737 35.555
141 141 1 0.0000 31.602 1.864 42.612
142 142 1 0.0000 27.317 27.531 28.793
143 143 1 0.0000 19.297 17.278 45.233
144 144 1 0.0000 29.749 9.662 29.208
145 145 1 0.0000 5.265 23.384 11.323
146 146 1 0.0000 10.281 33.417 9.254
147 147 1 0.0000 2.107 48.596 9.881
148 148 1 0.0000 10.917 41.705 16.398
149 149 1 0.0000 14.575 8.106 21.936
150 150 1 0.0000 35.940 43.241 42.668
151 151 1 0.0000 33.189 26.601 3.961
152 152 1 0.0000 8.949 24.670 16.020
153 153 1 0.0000 34.266 0.050 41.808
154 154 1 0.0000 38.023 13.724 14.394
155 155 1 0.0000 17.055 44.311 4.908
156 156 1 0.0000 21.778 41.109 9.224
157 157 1 0.0000 9.170 25.615 41.548
158 158 1 0.0000 -2.638 -5.194 12.208
159 159 1 0.0000 3.397 29.783 21.640
160 160 1 0.0000 -4.332 40.856 39.425
161 161 1 0.0000 4.963 -1.889 32.008
162 162 1 0.0000 39.218 0.316 4.800
163 163 1 0.0000 11.909 -1.110 23.226
164 164 1 0.0000 33.494 30.617 26.597
165 165 1 0.0000 41.617 43.525 23.789
166 166 1 0.0000 -7.721 34.802 17.174
167 167 1 0.0000 13.379 34.652 24.068
168 168 1 0.0000 19.307 8.134 3.679
169 169 1 0.0000 30.430 11.830 -2.154
170 170 1 0.0000 -0.201 -2.295 6.352
171 171 1 0.0000 37.737 34.213 46.975
172 172 1 0.0000 46.049 25.181 28.300
173 173 1 0.0000 0.325 41.518 -5.125
174 174 1 0.0000 -3.042 32.881 45.303
175 175 1 0.0000 -3.842 20.461 43.827
176 176 1 0.0000 17.461 -0.187 19.943
177 177 1 0.0000 7.218 10.386 24.285
178 178 1 0.0000 21.210 34.604 30.621
179 179 1 0.0000 16.439 42.263 30.504
180 180 1 0.0000 -1.090 31.312 44.614
181 181 1 0.0000 26.490 -1.303 7.827
182 182 1 0.0000 20.254 31.187 34.642
183 183 1 0.0000 42.983 33.646 10.227
184 184 1 0.0000 26.635 34.353 30.107
185 185 1 0.0000 0.072 32.920 41.471
186 186 1 0.0000 8.502 27.922 40.997
187 187 1 0.0000 12.002 25.110 1.025
188 188 1 0.0000 30.479 3.476 29.582
189 189 1 0.0000 11.196 28.695 -2.464
190 190 1 0.0000 6.517 41.257 44.207
191 191 1 0.0000 13.259 0.469 30.641
192 192 1 0.0000 -5.832 4.618 37.972
193 193 1 0.0000 -6.463 -1.492 34.298
194 194 1 0.0000 41.083 9.111 6.915
195 195 1 0.0000 -1.361 37.221 18.322
196 196 1 0.0000 46.116 19.859 21.745
197 197 1 0.0000 -1.854 37.497 0.292
198 198 1 0.0000 39.559 4.847 29.105
199 199 1 0.0000 1.431 11.443 32.842
200 200 1 0.0000 44.889 3.458 43.937
201 201 1 0.0000 27.956 27.125 0.112
202 202 1 0.0000 21.126 36.614 16.615
203 203 1 0.0000 1.292 45.875 13.858
204 204 1 0.0000 19.898 7.550 16.164
205 205 1 0.0000 43.632 16.742 9.824
206 206 1 0.0000 11.129 18.774 0.054
207 207 1 0.0000 31.471 38.119 3.214
208 208 1 0.0000 22.446 18.775 20.840
209 209 1 0.0000 10.914 34.435 46.078
210 210 1 0.0000 16.957 9.948 34.263
211 211 1 0.0000 13.064 45.170 28.619
212 212 1 0.0000 34.859 39.398 12.024
213 213 1 0.0000 25.696 41.796 16.422
214 214 1 0.0000 25.755 45.739 42.950
215 215 1 0.0000 37.038 -4.162 17.370
216 216 1 0.0000 27.771 33.964 32.463
217 217 1 0.0000 41.514 22.377 -5.657
218 218 1 0.0000 2.788 44.492 39.157
219 219 1 0.0000 23.085 43.118 19.499
220 220 1 0.0000 9.791 6.819 3.596
221 221 1 0.0000 45.716 -1.501 21.097
222 222 1 0.0000 -4.353 16.870 32.169
223 223 1 0.0000 28.514 42.285 3.943
224 224 1 0.0000 25.068 18.424 6.575
225 225 1 0.0000 23.406 33.230 26.802
226 226 1 0.0000 30.661 -0.341 3.229
227 227 1 0.0000 32.482 3.470 4.171
228 228 1 0.0000 35.595 29.563 14.866
229 229 1 0.0000 12.151 8.654 7.657
230 230 1 0.0000 5.016 -6.472 30.288
231 231 1 0.0000 49.115 22.471 10.051
232 232 1 0.0000 -1.206 -0.395 29.817
233 233 1 0.0000 1.473 15.444 31.234
234 234 1 0.0000 44.150 24.150 2.562
235 235 1 0.0000 -0.779 18.944 32.264
236 236 1 0.0000 4.318 41.137 9.881
237 237 1 0.0000 -0.207 41.446 2.294
238 238 1 0.0000 28.804 29.977 32.132
239 239 1 0.0000 40.232 22.016 -7.327
240 240 1 0.0000 42.167 34.731 41.843
241 241 1 0.0000 18.077 46.980 45.091
242 242 1 0.0000 40.956 42.588 -1.293
243 243 1 0.0000 26.545 22.915 40.420
244 244 1 0.0000 36.965 41.693 36.913
245 245 1 0.0000 34.007 12.158 40.891
246 246 1 0.0000 33.818 19.794 20.504
247 247 1 0.0000 36.224 16.630 47.992
248 248 1 0.0000 45.404 5.857 8.573
249 249 1 0.0000 19.308 2.341 32.822
250 250 1 0.0000 28.062 21.210 39.318
251 251 1 0.0000 12.703 30.654 48.646
252 252 1 0.0000 36.350 44.154 31.684
253 253 1 0.0000 26.084 -0.775 31.198
254 254 1 0.0000 5.258 39.260 17.248
255 255 1 0.0000 -2.326 18.227 10.447
256 256 1 0.0000 23.458 -1.527 28.449
257 257 1 0.0000 8.717 34.537 27.186
258 258 1 0.0000 14.207 13.788 20.683
259 259 1 0.0000 13.606 17.585 43.751
260 260 1 0.0000 -4.230 -0.324 40.525
261 261 1 0.0000 3.024 17.685 34.015
262 262 1 0.0000 2.822 23.318 19.729
263 263 1 0.0000 -2.174 0.800 43.521
264 264 1 0.0000 39.683 27.677 -5.998
265 265 1 0.0000 36.193 8.563 17.063
266 266 1 0.0000 38.148 19.879 33.484
267 267 1 0.0000 14.387 -1.705 29.124
268 268 1 0.0000 22.415 0.647 34.122
269 269 1 0.0000 38.121 24.885 43.264
270 270 1 0.0000 21.131 28.835 46.971
271 271 1 0.0000 -4.762 15.115 44.418
272 272 1 0.0000 26.983 38.712 34.530
273 273 1 0.0000 10.579 29.564 1.525
274 274 1 0.0000 2.429 45.068 3.217
275 275 1 0.0000 43.535 35.514 19.108
276 276 1 0.0000 34.827 40.388 4.033
277 277 1 0.0000 14.815 0.021 23.588
278 278 1 0.0000 20.985 13.601 11.504
279 279 1 0.0000 2.207 45.985 34.968
280 280 1 0.0000 22.545 3.114 42.152
281 281 1 0.0000 29.067 40.734 23.811
282 282 1 0.0000 19.717 27.199 5.808
283 283 1 0.0000 37.145 1.175 25.497
284 284 1 0.0000 22.859 10.125 17.616
285 285 1 0.0000 29.945 18.490 25.010
286 286 1 0.0000 39.231 19.694 0.861
287 287 1 0.0000 41.944 26.220 42.119
288 288 1 0.0000 13.692 19.175 30.326
289 289 1 0.0000 15.456 26.647 -2.258
290 290 1 0.0000 28.326 4.645 35.922
291 291 1 0.0000 43.083 1.621 22.364
292 292 1 0.0000 -2.201 6.638 18.037
293 293 1 0.0000 6.035 46.578 7.499
294 294 1 0.0000 23.292 0.611 24.365
295 295 1 0.0000 42.968 27.803 9.103
296 296 1 0.0000 35.552 45.831 43.105
297 297 1 0.0000 39.031 5.528 6.069
298 298 1 0.0000 40.979 7.796 29.714
299 299 1 0.0000 27.832 43.729 13.960
300 300 1 0.0000 32.946 14.080 -2.318
301 301 1 0.0000 3.634 36.651 22.885
302 302 1 0.0000 -2.786 18.050 44.918
303 303 1 0.0000 42.546 24.212 41.248
304 304 1 0.0000 41.084 28.629 42.659
305 305 1 0.0000 43.972 20.518 45.090
306 306 1 0.0000 22.713 2.144 44.793
307 307 1 0.0000 11.292 1.329 27.237
308 308 1 0.0000 -3.087 24.819 31.772
309 309 1 0.0000 11.078 29.376 4.013
310 310 1 0.0000 6.403 27.812 30.739
311 311 1 0.0000 15.128 34.791 40.120
312 312 1 0.0000 10.420 14.383 25.272
313 313 1 0.0000 44.763 10.021 14.177
314 314 1 0.0000 14.611 4.087 20.604
315 315 1 0.0000 47.107 10.112 29.204
316 316 1 0.0000 16.090 20.188 11.361
317 317 1 0.0000 35.566 28.986 17.057
318 318 1 0.0000 31.301 18.471 16.623
319 319 1 0.0000 -2.492 4.916 39.090
320 320 1 0.0000 18.964 1.695 22.220
321 321 1 0.0000 2.088 20.958 8.430
322 322 1 0.0000 38.891 25.538 -4.758
323 323 1 0.0000 5.138 15.098 10.904
324 324 1 0.0000 31.021 -3.099 -5.244
325 325 1 0.0000 9.450 44.308 2.883
326 326 1 0.0000 32.657 23.718 -5.090
327 327 1 0.0000 -3.352 18.888 47.039
328 328 1 0.0000 1.687 20.017 14.000
329 329 1 0.0000 27.686 9.315 -6.055
330 330 1 0.0000 25.005 22.455 17.444
331 331 1 0.0000 11.577 32.375 2.371
332 332 1 0.0000 32.482 27.239 20.042
333 333 1 0.0000 42.620 36.719 30.364
334 334 1 0.0000 -2.250 19.046 5.086
335 335 1 0.0000 36.580 44.096 9.314
336 336 1 0.0000 -4.826 17.910 39.683
337 337 1 0.0000 14.731 30.511 32.190
338 338 1 0.0000 45.500 36.426 24.692
339 339 1 0.0000 19.167 11.664 5.721
340 340 1 0.0000 -1.711 25.453 34.102
341 341 1 0.0000 26.199 10.397 -0.659
342 342 1 0.0000 19.489 7.744 21.716
343 343 1 0.0000 40.765 23.815 9.097
344 344 1 0.0000 13.521 1.829 28.783
345 345 1 0.0000 30.757 32.551 35.137
346 346 1 0.0000 6.561 36.026 38.253
347 347 1 0.0000 23.990 2.918 39.355
348 348 1 0.0000 0.724 -5.017 30.398
349 349 1 0.0000 9.267 42.462 -2.543
350 350 1 0.0000 2.554 6.380 46.162
351 351 1 0.0000 44.093 -0.019 0.352
352 352 1 0.0000 23.739 24.809 3.271
353 353 1 0.0000 3.842 -4.465 31.565
354 354 1 0.0000 40.784 30.134 1.464
355 355 1 0.0000 45.497 33.209 8.917
356 356 1 0.0000 31.437 29.041 14.849
357 357 1 0.0000 46.698 44.743 29.761
358 358 1 0.0000 15.444 29.542 7.044
359 359 1 0.0000 36.450 5.826 3.056
360 360 1 0.0000 12.366 21.966 22.128
361 361 1 0.0000 13.262 28.387 16.896
362 362 1 0.0000 39.753 41.964 45.658
363 363 1 0.0000 21.377 4.491 25.993
364 364 1 0.0000 40.011 4.748 3.724
365 365 1 0.0000 9.106 48.489 33.872
366 366 1 0.0000 45.209 28.512 43.418
367 367 1 0.0000 3.995 3.392 30.902
368 368 1 0.0000 31.090 10.225 9.005
369 369 1 0.0000 10.827 41.408 10.098
370 370 1 0.0000 24.106 15.782 27.822
371 371 1 0.0000 50.872 28.915 18.813
372 372 1 0.0000 2.710 -0.681 11.587
373 373 1 0.0000 45.163 32.441 12.599
374 374 1 0.0000 2.487 18.448 10.523
375 375 1 0.0000 10.726 35.503 43.209
376 376 1 0.0000 7.274 27.747 28.064
377 377 1 0.0000 11.532 13.822 44.002
378 378 1 0.0000 40.784 40.722 39.385
379 379 1 0.0000 32.085 22.738 -1.924
380 380 1 0.0000 13.163 31.282 41.772
381 381 1 0.0000 24.237 3.919 36.626
382 382 1 0.0000 33.785 15.621 28.976
383 383 1 0.0000 7.806 1.572 35.131
384 384 1 0.0000 46.987 11.654 16.699
385 385 1 0.0000 40.625 22.716 14.909
386 386 1 0.0000 38.924 1.591 19.639
387 387 1 0.0000 31.317 24.411 15.106
388 388 1 0.0000 15.996 37.407 41.155
389 389 1 0.0000 13.310 0.618 -3.296
390 390 1 0.0000 15.687 32.267 5.092
391 391 1 0.0000 31.916 -0.022 -3.258
392 392 1 0.0000 16.397 37.415 9.897
393 393 1 0.0000 4.753 41.321 21.198
394 394 1 0.0000 -5.445 17.734 45.464
395 395 1 0.0000 38.831 13.507 30.335
396 396 1 0.0000 17.789 29.844 47.098
397 397 1 0.0000 15.570 -3.920 0.100
398 398 1 0.0000 8.731 -2.473 1.276
399 399 1 0.0000 28.903 44.882 16.648
400 400 1 0.0000 -0.255 19.089 12.860
401 401 1 0.0000 10.563 27.898 25.192
402 402 1 0.0000 14.612 14.244 37.642
403 403 1 0.0000 26.494 28.216 31.557
404 404 1 0.0000 -0.912 15.882 7.958
405 405 1 0.0000 13.170 40.455 33.839
406 406 1 0.0000 21.513 10.877 11.344
407 407 1 0.0000 40.143 17.404 33.588
408 408 1 0.0000 0.984 18.182 42.269
409 409 1 0.0000 25.972 29.585 40.246
410 410 1 0.0000 3.546 8.215 13.990
411 411 1 0.0000 42.484 3.454 19.497
412 412 1 0.0000 12.660 45.822 3.844
413 413 1 0.0000 31.077 32.972 13.445
414 414 1 0.0000 28.494 25.122 -4.764
415 415 1 0.0000 22.842 22.788 4.604
416 416 1 0.0000 -2.706 8.982 44.221
417 417 1 0.0000 33.170 22.893 18.131
418 418 1 0.0000 13.396 15.352 34.957
419 419 1 0.0000 0.245 8.359 42.851
420 420 1 0.0000 36.253 41.407 46.406
421 421 1 0.0000 29.120 19.513 43.882
422 422 1 0.0000 32.395 -2.438 2.257
423 423 1 0.0000 34.639 30.096 20.014
424 424 1 0.0000 4.425 50.114 24.426
425 425 1 0.0000 33.082 27.787 -6.634
426 426 1 0.0000 2.779 42.943 22.695
427 427 1 0.0000 27.820 25.532 5.187
428 428 1 0.0000 17.436 17.538 32.153
429 429 1 0.0000 30.277 26.036 -1.830
430 430 1 0.0000 -3.355 13.509 10.597
431 431 1 0.0000 37.443 41.978 41.311
432 432 1 0.0000 7.588 -3.539 16.948
433 433 1 0.0000 14.802 -0.094 -1.400
434 434 1 0.0000 9.848 42.031 18.316
435 435 1 0.0000 7.741 8.042 46.904
436 436 1 0.0000 42.788 39.906 12.215
437 437 1 0.0000 44.388 12.446 -6.386
438 438 1 0.0000 28.149 26.996 3.811
439 439 1 0.0000 0.161 -1.349 37.130
440 440 1 0.0000 44.431 2.151 26.467
441 441 1 0.0000 43.124 35.574 14.949
442 442 1 0.0000 -1.579 17.447 15.762
443 443 1 0.0000 22.686 47.315 1.133
444 444 1 0.0000 22.892 8.407 20.094
445 445 1 0.0000 33.788 11.215 5.382
446 446 1 0.0000 17.706 15.129 36.615
447 447 1 0.0000 2.397 35.131 33.351
448 448 1 0.0000 30.050 34.073 28.044
449 449 1 0.0000 16.495 17.181 35.093
450 450 1 0.0000 10.790 21.648 29.888
451 451 1 0.0000 2.545 23.170 3.216
452 452 1 0.0000 47.627 11.119 41.542
453 453 1 0.0000 -0.059 17.183 38.983
454 454 1 0.0000 37.199 44.358 39.464
455 455 1 0.0000 15.841 22.505 34.149
456 456 1 0.0000 6.508 34.976 28.282
457 457 1 0.0000 12.462 36.715 19.592
458 458 1 0.0000 11.461 47.377 5.574
459 459 1 0.0000 39.775 44.512 44.708
460 460 1 0.0000 21.037 23.914 8.318
461 461 1 0.0000 7.234 -0.577 34.408
462 462 1 0.0000 24.479 10.064 39.176
463 463 1 0.0000 18.608 44.638 17.678
464 464 1 0.0000 3.151 23.431 1.242
465 465 1 0.0000 22.077 18.622 37.757
466 466 1 0.0000 30.836 29.690 -4.128
467 467 1 0.0000 33.845 45.448 32.255
468 468 1 0.0000 20.228 3.682 46.489
469 469 1 0.0000 32.562 33.692 2.274
470 470 1 0.0000 14.688 25.890 16.031
471 471 1 0.0000 21.824 33.480 5.014
472 472 1 0.0000 21.925 2.036 6.160
473 473 1 0.0000 24.263 0.686 40.430
474 474 1 0.0000 11.185 43.529 33.235
475 475 1 0.0000 25.650 2.301 17.587
476 476 1 0.0000 30.654 5.945 22.379
477 477 1 0.0000 38.244 6.927 22.355
478 478 1 0.0000 16.143 9.714 -2.354
479 479 1 0.0000 39.094 8.211 15.772
480 480 1 0.0000 32.070 38.995 31.044
481 481 1 0.0000 23.778 2.628 26.325
482 482 1 0.0000 12.454 44.520 13.163
483 483 1 0.0000 43.974 12.636 -1.825
484 484 1 0.0000 38.795 23.030 17.304
485 485 1 0.0000 38.331 45.095 17.646
486 486 1 0.0000 13.608 23.087 35.370
487 487 1 0.0000 30.177 12.958 7.783
488 488 1 0.0000 24.486 6.811 22.893
489 489 1 0.0000 1.458 44.241 15.777
490 490 1 0.0000 10.755 39.056 15.820
491 491 1 0.0000 14.473 1.966 4.211
492 492 1 0.0000 26.259 -0.525 49.115
493 493 1 0.0000 30.074 29.910 -1.892
494 494 1 0.0000 -1.405 40.352 25.942
495 495 1 0.0000 -3.769 39.021 29.750
496 496 1 0.0000 7.791 4.805 27.119
497 497 1 0.0000 38.487 30.822 26.670
498 498 1 0.0000 9.262 42.330 14.761
499 499 1 0.0000 3.223 19.700 22.509
500 500 1 0.0000 47.478 14.440 30.364
501 501 1 0.0000 13.833 45.078 22.747
502 502 1 0.0000 21.222 25.346 15.312
503 503 1 0.0000 -3.796 40.620 45.493
504 504 1 0.0000 21.512 0.957 40.512
505 505 1 0.0000 27.376 23.342 8.772
506 506 1 0.0000 10.211 41.072 43.830
507 507 1 0.0000 3.534 37.192 26.103
508 508 1 0.0000 19.618 12.011 31.648
509 509 1 0.0000 41.935 22.497 38.661
510 510 1 0.0000 2.128 15.420 43.145
511 511 1 0.0000 23.734 1.891 46.581
512 512 1 0.0000 34.208 31.143 -2.772
513 513 1 0.0000 0.885 -1.635 12.756
514 514 1 0.0000 11.612 22.122 -0.559
515 515 1 0.0000 30.487 5.923 -4.267
516 516 1 0.0000 32.189 2.694 -2.296
517 517 1 0.0000 32.616 1.679 35.687
518 518 1 0.0000 44.540 23.226 47.206
519 519 1 0.0000 38.645 0.313 8.413
520 520 1 0.0000 12.210 11.269 2.704
521 521 1 0.0000 36.035 2.998 33.822
522 522 1 0.0000 0.695 10.840 16.258
523 523 1 0.0000 31.799 27.498 -1.877
524 524 1 0.0000 35.084 31.944 18.086
525 525 1 0.0000 7.043 15.739 4.574
526 526 1 0.0000 10.995 34.070 18.873
527 527 1 0.0000 38.432 27.730 33.150
528 528 1 0.0000 32.271 28.435 1.136
529 529 1 0.0000 38.333 17.066 5.858
530 530 1 0.0000 44.377 1.373 19.822
531 531 1 0.0000 23.139 33.926 32.401
532 532 1 0.0000 26.137 40.812 33.082
533 533 1 0.0000 1.387 25.158 31.672
534 534 1 0.0000 41.015 29.487 30.351
535 535 1 0.0000 20.268 37.373 2.631
536 536 1 0.0000 9.857 16.246 -3.577
537 537 1 0.0000 14.518 13.630 39.691
538 538 1 0.0000 14.676 2.962 6.013
539 539 1 0.0000 38.822 41.364 31.933
540 540 1 0.0000 11.233 17.141 43.083
541 541 1 0.0000 3.286 5.938 33.246
542 542 1 0.0000 34.459 25.583 -0.358
543 543 1 0.0000 -4.018 23.262 6.957
544 544 1 0.0000 23.490 38.001 4.541
545 545 1 0.0000 -1.232 39.449 42.626
546 546 1 0.0000 9.268 20.228 46.388
547 547 1 0.0000 -2.338 23.985 16.763
548 548 1 0.0000 -5.357 31.980 5.109
549 549 1 0.0000 16.302 23.877 19.365
550 550 1 0.0000 11.339 40.949 40.948
551 551 1 0.0000 46.783 0.283 25.821
552 552 1 0.0000 39.975 7.457 24.617
553 553 1 0.0000 33.320 31.447 21.378
554 554 1 0.0000 29.206 33.068 30.673
555 555 1 0.0000 22.360 13.988 3.932
556 556 1 0.0000 24.385 34.572 29.448
557 557 1 0.0000 37.685 38.888 15.738
558 558 1 0.0000 29.333 45.305 1.826
559 559 1 0.0000 14.790 45.193 7.137
560 560 1 0.0000 0.360 35.840 4.371
561 561 1 0.0000 6.723 28.620 18.550
562 562 1 0.0000 -2.165 28.159 35.636
563 563 1 0.0000 26.650 42.543 31.345
564 564 1 0.0000 32.191 -3.840 4.099
565 565 1 0.0000 31.972 41.253 0.930
566 566 1 0.0000 33.245 4.177 28.923
567 567 1 0.0000 30.931 43.930 34.931
568 568 1 0.0000 44.335 36.918 16.541
569 569 1 0.0000 3.597 31.579 20.279
570 570 1 0.0000 28.965 14.342 27.718
571 571 1 0.0000 3.151 14.506 17.158
572 572 1 0.0000 36.869 23.513 29.904
573 573 1 0.0000 27.482 10.904 20.867
574 574 1 0.0000 34.166 -0.821 4.793
575 575 1 0.0000 26.268 8.347 35.615
576 576 1 0.0000 39.601 24.367 12.971
577 577 1 0.0000 13.591 31.257 36.309
578 578 1 0.0000 9.241 24.075 25.286
579 579 1 0.0000 24.319 3.896 45.224
580 580 1 0.0000 8.854 26.871 24.322
581 581 1 0.0000 32.972 36.621 15.391
582 582 1 0.0000 17.140 30.558 36.543
583 583 1 0.0000 21.568 27.013 30.907
584 584 1 0.0000 37.880 24.772 16.359
585 585 1 0.0000 13.505 3.016 9.109
586 586 1 0.0000 4.927 26.574 20.955
587 587 1 0.0000 -5.843 31.158 -4.516
588 588 1 0.0000 16.027 27.161 19.372
589 589 1 0.0000 -3.752 44.221 7.936
590 590 1 0.0000 44.040 8.661 5.994
591 591 1 0.0000 22.418 27.215 19.956
592 592 1 0.0000 18.550 41.162 44.655
593 593 1 0.0000 21.558 27.045 5.006
594 594 1 0.0000 16.691 41.495 7.803
595 595 1 0.0000 25.113 33.149 6.969
596 596 1 0.0000 0.971 18.230 33.139
597 597 1 0.0000 43.750 41.755 47.133
598 598 1 0.0000 5.620 31.298 30.357
599 599 1 0.0000 3.181 37.641 15.917
600 600 1 0.0000 7.716 28.132 21.643
601 601 1 0.0000 1.504 43.961 7.063
602 602 1 0.0000 24.238 34.505 35.423
603 603 1 0.0000 0.193 17.871 -2.831
604 604 1 0.0000 26.783 21.837 29.344
605 605 1 0.0000 33.554 36.298 17.809
606 606 1 0.0000 -4.007 39.596 17.430
607 607 1 0.0000 38.383 36.825 34.766
608 608 1 0.0000 42.416 14.669 19.924
609 609 1 0.0000 37.110 36.745 16.774
610 610 1 0.0000 47.879 13.621 17.991
611 611 1 0.0000 1.840 46.519 18.111
612 612 1 0.0000 10.123 6.827 35.658
613 613 1 0.0000 9.415 23.194 41.530
614 614 1 0.0000 3.780 17.783 31.217
615 615 1 0.0000 23.454 41.238 7.013
616 616 1 0.0000 26.893 26.252 38.782
617 617 1 0.0000 0.110 49.696 8.228
618 618 1 0.0000 11.548 19.212 21.599
619 619 1 0.0000 2.896 21.386 0.095
620 620 1 0.0000 2.808 -2.624 12.083
621 621 1 0.0000 -4.081 -0.488 18.374
622 622 1 0.0000 -7.563 25.088 -2.019
623 623 1 0.0000 -0.819 44.953 -1.761
624 624 1 0.0000 23.371 30.761 25.221
625 625 1 0.0000 2.025 38.910 12.231
626 626 1 0.0000 25.490 33.390 44.691
627 627 1 0.0000 32.552 42.985 -2.744
628 628 1 0.0000 11.403 16.466 2.675
629 629 1 0.0000 43.035 39.205 25.571
630 630 1 0.0000 40.162 25.100 19.202
631 631 1 0.0000 4.071 20.999 30.174
632 632 1 0.0000 -4.915 25.794 -4.465
633 633 1 0.0000 27.965 7.393 41.578
634 634 1 0.0000 4.712 -2.410 11.208
635 635 1 0.0000 22.060 8.857 44.939
636 636 1 0.0000 17.074 18.637 43.136
637 637 1 0.0000 37.543 26.349 1.169
638 638 1 0.0000 33.715 -1.299 -7.788
639 639 1 0.0000 46.416 -3.961 29.718
640 640 1 0.0000 34.291 43.287 -3.872
641 641 1 0.0000 -0.077 45.381 43.767
642 642 1 0.0000 23.955 46.789 4.874
643 643 1 0.0000 34.337 -0.986 -4.653
644 644 1 0.0000 -2.002 27.453 1.732
645 645 1 0.0000 38.137 23.475 1.572
646 646 1 0.0000 9.888 30.532 29.314
647 647 1 0.0000 28.539 5.075 -4.537
648 648 1 0.0000 0.844 41.452 31.777
649 649 1 0.0000 6.388 -4.494 15.636
650 650 1 0.0000 25.167 13.831 3.311
651 651 1 0.0000 34.781 8.138 -4.124
652 652 1 0.0000 40.573 18.027 6.399
653 653 1 0.0000 5.084 2.342 23.785
654 654 1 0.0000 24.147 29.838 18.633
655 655 1 0.0000 42.366 3.662 24.201
656 656 1 0.0000 1.521 10.671 39.934
657 657 1 0.0000 1.705 -1.157 16.420
658 658 1 0.0000 5.129 -0.445 11.545
659 659 1 0.0000 13.697 19.832 25.491
660 660 1 0.0000 46.691 -5.860 34.546
661 661 1 0.0000 33.227 5.199 -0.035
662 662 1 0.0000 41.916 -0.972 33.810
663 663 1 0.0000 32.819 29.386 41.708
664 664 1 0.0000 37.279 23.798 -0.846
665 665 1 0.0000 33.140 32.676 -5.096
666 666 1 0.0000 42.141 -5.153 38.583
667 667 1 0.0000 14.445 42.852 3.095
668 668 1 0.0000 -5.892 10.267 42.366
669 669 1 0.0000 -2.702 10.688 45.908
670 670 1 0.0000 -1.694 1.039 10.889
671 671 1 0.0000 17.007 37.790 23.646
672 672 1 0.0000 5.699 -2.920 3.606
673 673 1 0.0000 49.879 13.242 48.627
674 674 1 0.0000 38.525 10.562 18.720
675 675 1 0.0000 41.477 11.764 39.062
676 676 1 0.0000 7.864 -0.247 4.289
677 677 1 0.0000 -1.075 13.640 43.744
678 678 1 0.0000 10.530 16.490 9.242
679 679 1 0.0000 43.253 5.679 26.435
680 680 1 0.0000 28.320 9.307 35.458
681 681 1 0.0000 12.224 38.777 21.680
682 682 1 0.0000 42.122 4.016 28.776
683 683 1 0.0000 9.098 41.326 26.524
684 684 1 0.0000 8.596 9.107 16.243
685 685 1 0.0000 2.548 5.248 37.279
686 686 1 0.0000 44.478 17.643 22.936
687 687 1 0.0000 34.480 41.739 -6.971
688 688 1 0.0000 1.722 7.953 37.573
689 689 1 0.0000 18.667 29.980 39.687
690 690 1 0.0000 29.246 33.740 0.102
691 691 1 0.0000 24.649 40.165 20.635
692 692 1 0.0000 49.614 2.495 21.541
693 693 1 0.0000 43.799 12.133 26.303
694 694 1 0.0000 -2.302 42.487 5.803
695 695 1 0.0000 -0.183 -3.140 11.102
696 696 1 0.0000 33.559 49.335 20.877
697 697 1 0.0000 27.835 13.287 24.111
698 698 1 0.0000 -0.408 33.207 -3.261
699 699 1 0.0000 17.058 15.786 48.439
700 700 1 0.0000 41.363 38.300 21.729
701 701 1 0.0000 14.747 18.998 40.140
702 702 1 0.0000 28.951 -4.054 16.164
703 703 1 0.0000 32.947 -5.618 44.522
704 704 1 0.0000 3.808 31.872 -3.524
705 705 1 0.0000 37.144 -1.807 45.054
706 706 1 0.0000 7.311 33.658 -8.361
707 707 1 0.0000 30.746 30.823 41.344
708 708 1 0.0000 6.536 28.223 36.821
709 709 1 0.0000 31.226 26.785 -5.651
710 710 1 0.0000 30.195 24.363 -0.431
711 711 1 0.0000 24.447 13.938 10.477
712 712 1 0.0000 36.129 40.702 1.336
713 713 1 0.0000 38.139 20.805 30.999
714 714 1 0.0000 8.542 19.173 -1.572
715 715 1 0.0000 0.397 -6.676 10.799
716 716 1 0.0000 31.398 -1.274 15.506
717 717 1 0.0000 39.893 27.602 4.442
718 718 1 0.0000 23.324 44.469 31.107
719 719 1 0.0000 6.489 33.282 37.638
720 720 1 0.0000 46.635 -3.212 33.174
721 721 1 0.0000 42.408 0.959 31.719
722 722 1 0.0000 25.110 32.626 11.282
723 723 1 0.0000 8.347 -4.370 12.343
724 724 1 0.0000 -2.091 -2.094 9.641
725 725 1 0.0000 31.801 -3.421 12.494
726 726 1 0.0000 12.932 22.444 43.951
727 727 1 0.0000 23.063 9.264 22.843
728 728 1 0.0000 27.060 -4.181 17.588
729 729 1 0.0000 3.497 15.547 8.922
730 730 1 0.0000 24.395 11.067 22.660
731 731 1 0.0000 3.125 42.520 7.856
732 732 1 0.0000 18.938 7.326 19.548
733 733 1 0.0000 44.371 26.733 5.319
734 734 1 0.0000 3.337 0.003 6.400
735 735 1 0.0000 1.427 42.842 18.488
736 736 1 0.0000 4.808 42.200 12.909
737 737 1 0.0000 28.569 29.334 45.918
738 738 1 0.0000 35.623 -4.009 15.492
739 739 1 0.0000 4.652 34.509 -2.083
740 740 1 0.0000 14.399 43.933 -2.824
741 741 1 0.0000 6.963 -1.162 13.514
742 742 1 0.0000 15.202 40.496 43.871
743 743 1 0.0000 31.973 42.070 19.731
744 744 1 0.0000 29.592 -3.675 11.178
745 745 1 0.0000 22.727 8.734 25.980
746 746 1 0.0000 12.324 16.969 -4.499
747 747 1 0.0000 26.322 13.415 31.629
748 748 1 0.0000 29.417 -2.127 17.549
749 749 1 0.0000 37.990 12.549 -1.228
750 750 1 0.0000 9.246 -1.233 5.845
751 751 1 0.0000 15.740 13.375 2.564
752 752 1 0.0000 46.368 23.970 2.137
753 753 1 0.0000 16.425 42.051 20.532
754 754 1 0.0000 7.946 -2.385 6.936
755 755 1 0.0000 5.950 33.826 31.559
756 756 1 0.0000 21.086 22.277 41.628
757 757 1 0.0000 8.095 0.207 7.772
758 758 1 0.0000 43.049 15.450 32.453
759 759 1 0.0000 1.553 11.104 49.984
760 760 1 0.0000 -2.468 46.381 23.582
761 761 1 0.0000 13.342 -4.074 33.976
762 762 1 0.0000 27.966 42.581 16.263
763 763 1 0.0000 34.391 -1.358 12.594
764 764 1 0.0000 9.082 18.904 1.268
765 765 1 0.0000 33.779 45.551 17.073
766 766 1 0.0000 43.977 20.442 14.827
767 767 1 0.0000 40.247 19.859 30.849
768 768 1 0.0000 13.163 -8.503 29.652
769 769 1 0.0000 27.041 -4.657 14.791
770 770 1 0.0000 32.794 12.222 3.786
771 771 1 0.0000 19.044 -0.590 31.940
772 772 1 0.0000 12.088 42.305 -5.406
773 773 1 0.0000 23.672 33.459 9.793
774 774 1 0.0000 47.557 9.138 38.983
775 775 1 0.0000 6.139 31.690 33.777
776 776 1 0.0000 9.811 23.154 35.181
777 777 1 0.0000 38.807 44.956 -2.793
778 778 1 0.0000 27.077 -1.781 18.317
779 779 1 0.0000 11.832 -1.590 33.388
780 780 1 0.0000 10.542 -3.195 27.725
781 781 1 0.0000 19.409 35.384 19.181
782 782 1 0.0000 14.892 45.769 -4.175
783 783 1 0.0000 -1.364 11.046 41.179
784 784 1 0.0000 18.893 34.195 20.782
785 785 1 0.0000 1.862 10.120 -4.192
786 786 1 0.0000 40.876 14.594 -0.802
787 787 1 0.0000 43.974 36.210 -4.527
788 788 1 0.0000 -2.986 7.013 42.002
789 789 1 0.0000 44.635 0.993 29.788
790 790 1 0.0000 12.933 42.490 -1.243
791 791 1 0.0000 4.093 9.771 47.269
792 792 1 0.0000 37.794 41.207 0.251
793 793 1 0.0000 10.145 15.468 12.513
794 794 1 0.0000 29.338 21.037 31.343
795 795 1 0.0000 26.317 -2.743 22.878
796 796 1 0.0000 40.701 3.214 -5.951
797 797 1 0.0000 34.966 25.131 5.010
798 798 1 0.0000 -2.910 19.848 16.405
799 799 1 0.0000 42.795 6.396 -3.187