LAMMPS Description # full

60 atoms
57 bonds
54 angles
72 dihedrals
12 impropers

6 atom types
4 bond types
3 angle types
3 dihedral types
1 improper types

-5.73 16.27 xlo xhi # 0.00 13.03
-8.51 13.49 ylo yhi # 0.00 13.03
-5.53 16.47 zlo zhi # 0.00 13.03

Masses

1 15.035 # CH3 Isobutane C 84
2 14.027 # CH2 n-Butane C 86
3 15.999 # OH Alcohol Hydroxyl O 104
4 1.008 # H Alcohol Hydroxyl H 105
5 14.027 # CH2 Ethanol C 107
6 13.019 # CH Isopropanol C 108

Pair Coeffs

1 0.1600 3.9100
2 0.1180 3.9050
3 0.1700 3.0700
4 0.0000 0.0000
5 0.1180 3.9050
6 0.0800 3.8500

Bond Coeffs

1  260.0 1.526
2  260.0 1.526
3  553.0 0.945
4  386.0 1.425

Angle Coeffs

1 63.0 112.4
2 55.0 108.5
3 80.0 109.5

Dihedral Coeffs

1  0.0 0.0 4.0 0.0
2  0.0 0.0 4.0 0.0
3  0.0 0.0 1.0 0.0

Improper Coeffs

1 14.0 -1 3

Atoms

1 1 1 0.0000 8.027 1.716 2.908
2 1 6 0.2650 7.908 2.794 1.836
3 1 3 -0.7000 9.018 2.718 0.946
4 1 4 0.4350 9.106 3.501 0.424
5 1 2 -0.0000 6.582 2.733 1.083
6 1 6 0.2650 6.728 1.909 -0.194
7 1 3 -0.7000 5.871 0.770 -0.204
8 1 4 0.4350 6.343 0.049 0.184
9 1 2 -0.0000 8.190 1.586 -0.490
10 1 6 0.2650 8.431 0.975 -1.867
11 1 3 -0.7000 7.711 -0.242 -2.038
12 1 4 0.4350 6.853 -0.077 -2.399
13 1 2 -0.0000 8.226 1.947 -3.026
14 1 6 0.2650 7.524 1.197 -4.154
15 1 3 -0.7000 6.104 1.211 -4.040
16 1 4 0.4350 5.845 0.806 -3.227
17 1 2 -0.0000 8.065 -0.222 -4.308
18 1 5 0.2650 9.158 -0.440 -3.264
19 1 3 -0.7000 9.619 -1.775 -3.459
20 1 4 0.4350 9.232 -2.363 -2.828
21 2 1 0.0000 0.371 3.284 12.147
22 2 6 0.2650 1.312 3.013 10.977
23 2 3 -0.7000 0.645 2.234 9.989
24 2 4 0.4350 -0.293 2.353 10.019
25 2 2 -0.0000 1.897 4.291 10.382
26 2 6 0.2650 1.394 4.497 8.955
27 2 3 -0.7000 0.100 3.936 8.751
28 2 4 0.4350 0.211 3.102 8.320
29 2 2 -0.0000 2.430 4.055 7.925
30 2 6 0.2650 3.803 3.740 8.511
31 2 3 -0.7000 3.825 3.913 9.925
32 2 4 0.4350 4.214 4.743 10.155
33 2 2 -0.0000 4.375 2.394 8.074
34 2 6 0.2650 3.919 1.339 9.078
35 2 3 -0.7000 4.524 0.066 8.869
36 2 4 0.4350 3.935 -0.616 9.151
37 2 2 -0.0000 2.397 1.240 9.138
38 2 5 0.2650 2.018 -0.192 9.503
39 2 3 -0.7000 0.593 -0.217 9.543
40 2 4 0.4350 0.242 -0.716 8.820
41 3 1 0.0000 3.604 4.113 4.049
42 3 6 0.2650 4.357 4.451 5.332
43 3 3 -0.7000 3.577 4.076 6.464
44 3 4 0.4350 3.181 4.826 6.883
45 3 2 -0.0000 5.749 3.828 5.380
46 3 6 0.2650 6.496 4.280 6.632
47 3 3 -0.7000 7.868 3.897 6.612
48 3 4 0.4350 8.027 3.432 5.805
49 3 2 -0.0000 5.758 3.872 7.905
50 3 6 0.2650 6.557 2.958 8.828
51 3 3 -0.7000 7.923 3.355 8.910
52 3 4 0.4350 8.246 3.624 8.064
53 3 2 -0.0000 5.923 2.746 10.200
54 3 6 0.2650 6.783 3.464 11.234
55 3 3 -0.7000 6.150 3.587 12.505
56 3 4 0.4350 5.658 4.393 12.539
57 3 2 -0.0000 7.278 4.812 10.716
58 3 5 0.2650 6.152 5.832 10.862
59 3 3 -0.7000 5.562 5.946 9.569
60 3 4 0.4350 4.955 6.670 9.537

Bonds

1 1 1 2
2 4 2 3
3 3 3 4
4 2 5 6
5 4 6 7
6 3 7 8
7 2 9 10
8 4 10 11
9 3 11 12
10 2 13 14
11 4 14 15
12 3 15 16
13 2 17 18
14 4 18 19
15 3 19 20
16 2 2 5
17 2 6 9
18 2 10 13
19 2 14 17
20 1 21 22
21 4 22 23
22 3 23 24
23 2 25 26
24 4 26 27
25 3 27 28
26 2 29 30
27 4 30 31
28 3 31 32
29 2 33 34
30 4 34 35
31 3 35 36
32 2 37 38
33 4 38 39
34 3 39 40
35 2 22 25
36 2 26 29
37 2 30 33
38 2 34 37
39 1 41 42
40 4 42 43
41 3 43 44
42 2 45 46
43 4 46 47
44 3 47 48
45 2 49 50
46 4 50 51
47 3 51 52
48 2 53 54
49 4 54 55
50 3 55 56
51 2 57 58
52 4 58 59
53 3 59 60
54 2 42 45
55 2 46 49
56 2 50 53
57 2 54 57

Angles

1 3 1 2 3
2 3 5 2 3
3 2 4 3 2
4 1 6 5 2
5 3 5 6 7
6 3 9 6 7
7 2 8 7 6
8 1 10 9 6
9 3 9 10 11
10 3 13 10 11
11 2 12 11 10
12 1 14 13 10
13 3 13 14 15
14 3 17 14 15
15 2 16 15 14
16 1 18 17 14
17 3 17 18 19
18 2 20 19 18
19 3 21 22 23
20 3 25 22 23
21 2 24 23 22
22 1 26 25 22
23 3 25 26 27
24 3 29 26 27
25 2 28 27 26
26 1 30 29 26
27 3 29 30 31
28 3 33 30 31
29 2 32 31 30
30 1 34 33 30
31 3 33 34 35
32 3 37 34 35
33 2 36 35 34
34 1 38 37 34
35 3 37 38 39
36 2 40 39 38
37 3 41 42 43
38 3 45 42 43
39 2 44 43 42
40 1 46 45 42
41 3 45 46 47
42 3 49 46 47
43 2 48 47 46
44 1 50 49 46
45 3 49 50 51
46 3 53 50 51
47 2 52 51 50
48 1 54 53 50
49 3 53 54 55
50 3 57 54 55
51 2 56 55 54
52 1 58 57 54
53 3 57 58 59
54 2 60 59 58

Dihedrals

1 1 1 2 5 6
2 3 1 2 3 4
3 3 5 2 3 4
4 2 3 2 5 6
5 1 2 5 6 9
6 2 2 5 6 7
7 1 5 6 9 10
8 3 5 6 7 8
9 3 9 6 7 8
10 2 7 6 9 10
11 1 6 9 10 13
12 2 6 9 10 11
13 1 9 10 13 14
14 3 9 10 11 12
15 3 13 10 11 12
16 2 11 10 13 14
17 1 10 13 14 17
18 2 10 13 14 15
19 1 13 14 17 18
20 3 13 14 15 16
21 3 17 14 15 16
22 2 15 14 17 18
23 2 14 17 18 19
24 3 17 18 19 20
25 1 21 22 25 26
26 3 21 22 23 24
27 3 25 22 23 24
28 2 23 22 25 26
29 1 22 25 26 29
30 2 22 25 26 27
31 1 25 26 29 30
32 3 25 26 27 28
33 3 29 26 27 28
34 2 27 26 29 30
35 1 26 29 30 33
36 2 26 29 30 31
37 1 29 30 33 34
38 3 29 30 31 32
39 3 33 30 31 32
40 2 31 30 33 34
41 1 30 33 34 37
42 2 30 33 34 35
43 1 33 34 37 38
44 3 33 34 35 36
45 3 37 34 35 36
46 2 35 34 37 38
47 2 34 37 38 39
48 3 37 38 39 40
49 1 41 42 45 46
50 3 41 42 43 44
51 3 45 42 43 44
52 2 43 42 45 46
53 1 42 45 46 49
54 2 42 45 46 47
55 1 45 46 49 50
56 3 45 46 47 48
57 3 49 46 47 48
58 2 47 46 49 50
59 1 46 49 50 53
60 2 46 49 50 51
61 1 49 50 53 54
62 3 49 50 51 52
63 3 53 50 51 52
64 2 51 50 53 54
65 1 50 53 54 57
66 2 50 53 54 55
67 1 53 54 57 58
68 3 53 54 55 56
69 3 57 54 55 56
70 2 55 54 57 58
71 2 54 57 58 59
72 3 57 58 59 60

Impropers

1 1 1 3 2 5
2 1 5 7 6 9
3 1 9 11 10 13
4 1 13 15 14 17
5 1 21 23 22 25
6 1 25 27 26 29
7 1 29 31 30 33
8 1 33 35 34 37
9 1 41 43 42 45
10 1 45 47 46 49
11 1 49 51 50 53
12 1 53 55 54 57

