LAMMPS (7 Feb 2024 - Development - patch_7Feb2024-18-gc6a8f1fe58)
units real
atom_style full
bond_style harmonic
angle_style harmonic
dihedral_style opls
improper_style cvff
pair_style lj/cut 11.0
pair_modify mix geometric
special_bonds lj/coul 0 0 0.5
read_data polymer_builder.data
Reading data file ...
  orthogonal box = (-4.39 -4.19 -5.33) to (29.15 28.83 28.62)
  1 by 1 by 1 MPI processor grid
  reading atoms ...
  400 atoms
  scanning bonds ...
  1 = max bonds/atom
  reading bonds ...
  200 bonds
Finding 1-2 1-3 1-4 neighbors ...
  special bond factors lj:    0        0        0.5     
  special bond factors coul:  0        0        0.5     
     1 = max # of 1-2 neighbors
     0 = max # of 1-3 neighbors
     0 = max # of 1-4 neighbors
     1 = max # of special neighbors
  special bonds CPU = 0.000 seconds
  read_data CPU = 0.004 seconds
dump 1 all custom 1000 dump.custom.gz id xu yu zu
dump_modify 1 sort id
min_style fire
minimize 1.0e-6 1.0e-8 10000 100000
Generated 0 of 0 mixed pair_coeff terms from geometric mixing rule
Neighbor list info ...
  update: every = 1 steps, delay = 0 steps, check = yes
  max neighbors/atom: 2000, page size: 100000
  master list distance cutoff = 13
  ghost atom cutoff = 13
  binsize = 6.5, bins = 6 6 6
  1 neighbor lists, perpetual/occasional/extra = 1 0 0
  (1) pair lj/cut, perpetual
      attributes: half, newton on
      pair build: half/bin/newton
      stencil: half/bin/3d
      bin: standard
  Parameters for fire:
    dmax  delaystep dtgrow dtshrink alpha0 alphashrink tmax tmin   integrator   halfstepback   abcfire  
     0.1     20      1.1     0.5     0.25     0.99      10  0.02 eulerimplicit      yes          no     
Per MPI rank memory allocation (min/avg/max) = 6.221 | 6.221 | 6.221 Mbytes
   Step          Temp          E_pair         E_mol          TotEng         Press     
         0   0              23763.216      0.012652654    23763.228      183190.61    
      7821   0.017140619   -631.87757      0.11609718    -631.74109     -26.630815    
Loop time of 3.6619 on 1 procs for 7821 steps with 400 atoms

95.8% CPU use with 1 MPI tasks x no OpenMP threads

Minimization stats:
  Stopping criterion = energy tolerance
  Energy initial, next-to-last, final = 
      23763.2281922489  -631.761311136975  -631.761474067382
  Force two-norm initial, final = 25047.103 0.80817929
  Force max component initial, final = 4135.3896 0.17622505
  Final line search alpha, max atom move = 0 0
  Iterations, force evaluations = 7821 8232

MPI task timing breakdown:
Section |  min time  |  avg time  |  max time  |%varavg| %total
---------------------------------------------------------------
Pair    | 3.4956     | 3.4956     | 3.4956     |   0.0 | 95.46
Bond    | 0.028215   | 0.028215   | 0.028215   |   0.0 |  0.77
Neigh   | 0.010524   | 0.010524   | 0.010524   |   0.0 |  0.29
Comm    | 0.052236   | 0.052236   | 0.052236   |   0.0 |  1.43
Output  | 0.0020681  | 0.0020681  | 0.0020681  |   0.0 |  0.06
Modify  | 0          | 0          | 0          |   0.0 |  0.00
Other   |            | 0.07323    |            |       |  2.00

Nlocal:            400 ave         400 max         400 min
Histogram: 1 0 0 0 0 0 0 0 0 0
Nghost:           1527 ave        1527 max        1527 min
Histogram: 1 0 0 0 0 0 0 0 0 0
Neighs:          26302 ave       26302 max       26302 min
Histogram: 1 0 0 0 0 0 0 0 0 0

Total # of neighbors = 26302
Ave neighs/atom = 65.755
Ave special neighs/atom = 1
Neighbor list builds = 15
Dangerous builds = 0
timestep 1
thermo_modify flush yes
thermo 1000
velocity all create 10 482748
fix 1a all temp/berendsen 10 10 100
fix 1b all nve
run 1000
Generated 0 of 0 mixed pair_coeff terms from geometric mixing rule
Per MPI rank memory allocation (min/avg/max) = 7.5 | 7.5 | 7.5 Mbytes
   Step          Temp          E_pair         E_mol          TotEng         Press     
      7821   10            -631.87757      0.11609718    -619.86804     -12.195872    
      8000   7.821511      -624.91649      1.5777481     -614.03628     -46.49653     
      8821   10.695159     -628.57998      1.3904907     -614.46928      69.860764    
Loop time of 0.3176 on 1 procs for 1000 steps with 400 atoms

Performance: 272.041 ns/day, 0.088 hours/ns, 3148.620 timesteps/s, 1.259 Matom-step/s
95.7% CPU use with 1 MPI tasks x no OpenMP threads

MPI task timing breakdown:
Section |  min time  |  avg time  |  max time  |%varavg| %total
---------------------------------------------------------------
Pair    | 0.29933    | 0.29933    | 0.29933    |   0.0 | 94.25
Bond    | 0.0026758  | 0.0026758  | 0.0026758  |   0.0 |  0.84
Neigh   | 0.001539   | 0.001539   | 0.001539   |   0.0 |  0.48
Comm    | 0.0062941  | 0.0062941  | 0.0062941  |   0.0 |  1.98
Output  | 0.00042528 | 0.00042528 | 0.00042528 |   0.0 |  0.13
Modify  | 0.0051084  | 0.0051084  | 0.0051084  |   0.0 |  1.61
Other   |            | 0.002225   |            |       |  0.70

Nlocal:            400 ave         400 max         400 min
Histogram: 1 0 0 0 0 0 0 0 0 0
Nghost:           1528 ave        1528 max        1528 min
Histogram: 1 0 0 0 0 0 0 0 0 0
Neighs:          26620 ave       26620 max       26620 min
Histogram: 1 0 0 0 0 0 0 0 0 0

Total # of neighbors = 26620
Ave neighs/atom = 66.55
Ave special neighs/atom = 1
Neighbor list builds = 2
Dangerous builds = 0
unfix 1b
unfix 1a

fix 2a all press/berendsen iso 1 1 10000
fix 2b all temp/berendsen 10 300 100
fix 2c all nve
run 10000
Generated 0 of 0 mixed pair_coeff terms from geometric mixing rule
Per MPI rank memory allocation (min/avg/max) = 7.5 | 7.5 | 7.5 Mbytes
   Step          Temp          E_pair         E_mol          TotEng         Press          Volume    
      8821   10.695159     -628.57998      1.3904907     -614.46928      69.860764      37599.313    
      9000   14.049001     -629.28179      0.19535995    -612.37735      8.6090504      38086.077    
     10000   38.282636     -608.0423       2.8868665     -559.62424      8.705967       41983.152    
     11000   64.147776     -568.00857      6.2499889     -485.46486      14.67796       48934.554    
     12000   97.613199     -531.86287      4.5208432     -411.24643      21.328533      56659.306    
     13000   129.50017     -502.1883       5.9644687     -342.20368      0.15567593     65070.07     
     14000   154.73825     -462.80131      11.122543     -267.64188      4.2943764      73279.403    
     15000   180.35988     -414.77975      12.804536     -187.46542      20.013756      82627.646    
     16000   218.05621     -393.10684      11.062236     -122.70093     -7.1705212      87561.729    
     17000   239.51006     -324.37709      15.400068     -24.117351      25.76252       102024.44    
     18000   269.69408     -255.38701      21.418705      86.790509      22.414617      125863.66    
     18821   297.96979     -215.99796      19.535578      157.92596      14.360488      147318.35    
Loop time of 2.67604 on 1 procs for 10000 steps with 400 atoms

Performance: 322.865 ns/day, 0.074 hours/ns, 3736.867 timesteps/s, 1.495 Matom-step/s
96.9% CPU use with 1 MPI tasks x no OpenMP threads

MPI task timing breakdown:
Section |  min time  |  avg time  |  max time  |%varavg| %total
---------------------------------------------------------------
Pair    | 2.4337     | 2.4337     | 2.4337     |   0.0 | 90.95
Bond    | 0.037845   | 0.037845   | 0.037845   |   0.0 |  1.41
Neigh   | 0.070385   | 0.070385   | 0.070385   |   0.0 |  2.63
Comm    | 0.031141   | 0.031141   | 0.031141   |   0.0 |  1.16
Output  | 0.0034309  | 0.0034309  | 0.0034309  |   0.0 |  0.13
Modify  | 0.080491   | 0.080491   | 0.080491   |   0.0 |  3.01
Other   |            | 0.01901    |            |       |  0.71

Nlocal:            400 ave         400 max         400 min
Histogram: 1 0 0 0 0 0 0 0 0 0
Nghost:            255 ave         255 max         255 min
Histogram: 1 0 0 0 0 0 0 0 0 0
Neighs:          12029 ave       12029 max       12029 min
Histogram: 1 0 0 0 0 0 0 0 0 0

Total # of neighbors = 12029
Ave neighs/atom = 30.0725
Ave special neighs/atom = 1
Neighbor list builds = 123
Dangerous builds = 0
unfix 2c
unfix 2b
unfix 2a

variable xl equal "xhi - xlo"
variable yl equal "yhi - ylo"
variable zl equal "zhi - zlo"
fix xyzl all ave/time 1 1000 1000 v_xl v_yl v_zl file xyzl.data

fix 4a all press/berendsen iso 1 1 1000
fix 4b all temp/berendsen 300 300 100
fix 4c all nve
run 1000000
Generated 0 of 0 mixed pair_coeff terms from geometric mixing rule
Per MPI rank memory allocation (min/avg/max) = 7.505 | 7.505 | 7.505 Mbytes
   Step          Temp          E_pair         E_mol          TotEng         Press          Volume    
     18821   297.96979     -215.97615      19.545496      157.95769      12.629565      147318.35    
     19000   301.91956     -190.47742      22.321226      190.92979      4.9747779      168284.28    
     20000   311.66402     -86.662761      26.875537      310.88826      10.580464      482192.48    
     21000   303.98197     -50.250541      32.346653      343.635        6.7578752      948819.53    
     22000   301.64442     -34.801873      34.370875      358.32774      4.0159848      1364757.1    
     23000   302.6266      -26.372177      34.604217      368.15893      3.1676816      1743494.9    
     24000   301.34102     -24.665591      37.815097      371.5474       2.3721484      2070137.8    
     25000   300.48555     -22.222841      37.253665      372.41127      2.4688621      2401021.2    
     26000   302.49524     -15.517833      35.801065      380.0539       1.9687995      2656636.2    
     27000   299.64251     -15.572262      39.479483      380.285        1.6969216      2908450.2    
     28000   300.44718     -11.296379      39.009946      385.04838      1.5384013      3119375.9    
     29000   300.8602      -11.065787      38.439995      385.20024      1.4816508      3311599.7    
     30000   301.46255     -10.138908      37.36908       385.77261      1.4047787      3482892.1    
     31000   298.9712      -7.9410527      41.157926      388.79625      1.3500835      3634129.7    
     32000   301.19245     -7.3916556      38.507499      389.33704      1.4941305      3775069.7    
     33000   301.46172     -7.6491191      38.85365       389.74598      1.2633408      3891431.1    
     34000   298.47252     -7.8384943      42.195323      389.34309      1.1646942      3994942.5    
     35000   302.30809     -8.2328912      37.3717        388.68688      1.3132532      4097885.1    
     36000   299.34256     -4.8253053      39.847224      391.04296      1.5611348      4189239.3    
     37000   300.7812      -5.9823542      39.111664      390.86138      1.2003819      4283670.5    
     38000   299.05295     -7.6553224      41.48842       389.5097       1.1804779      4356313.5    
     39000   299.53804     -5.8593983      40.76258       391.15672      1.1247225      4450891.1    
     40000   300.12978     -5.2846166      39.528417      391.20111      1.4337429      4531687.2    
     41000   301.90797     -6.6817877      38.219831      390.61024      1.1288065      4588397.2    
     42000   298.93539     -7.5032116      41.104624      389.13819      1.2978401      4648853.8    
     43000   298.02986     -4.2181849      41.220397      391.46201      1.2386899      4712387.2    
     44000   301.15085     -5.0399583      38.637982      391.76975      1.1563282      4764938.5    
     45000   299.37632     -7.9658114      41.932903      390.02829      1.0660922      4804653.5    
     46000   300.14382     -5.254474       39.619027      391.33857      1.1547911      4868082.8    
     47000   302.38855     -6.3847152      37.324319      390.58337      1.1543666      4917277.7    
     48000   298.76307     -5.6907956      41.669481      391.31051      1.0012279      4952628.4    
     49000   298.49832     -4.0288478      41.999633      392.98773      1.0575127      5000682      
     50000   300.42589     -4.7320244      40.096837      392.6743       1.0751529      5039125.8    
     51000   302.339       -3.7131633      37.389332      393.26101      1.083665       5066366.4    
     52000   297.08425     -4.7384454      43.183579      391.78027      1.0589018      5095396.8    
     53000   299.16712     -3.9664393      40.908217      392.75416      1.0298968      5139911.2    
     54000   301.74963     -2.9671447      37.052201      392.96893      1.2265075      5170531.5    
     55000   299.91536     -4.5075511      39.959032      392.15378      1.0037675      5206795.2    
     56000   300.26186     -4.4934105      38.921003      391.54199      1.1165046      5240211.7    
     57000   298.93412     -4.4318058      41.055792      392.15926      0.99559083     5266582.9    
     58000   298.57493     -3.817897       42.082799      393.37297      0.96634891     5289088.4    
     59000   301.75853     -4.4128968      37.983587      392.46515      1.1795342      5312578.2    
     60000   300.07266     -3.0046365      39.738175      393.62292      1.0539466      5328358.9    
     61000   301.06016     -3.3911619      38.960831      393.63352      1.0104648      5348098.3    
     62000   299.65288     -5.0230814      40.511969      391.87901      1.0714853      5365329.8    
     63000   298.84962     -4.181904       40.975984      392.22885      1.0577419      5396253      
     64000   302.51531     -4.4618543      36.761846      392.09452      1.0535592      5410832.9    
     65000   299.14362     -3.2224252      40.753542      393.31555      1.0777143      5436183.9    
     66000   299.48518     -4.6264792      40.538908      392.10309      0.996338       5469345.8    
     67000   297.32993      0.015035392    39.753936      393.39631      1.357263       5486889.8    
     68000   300.15522     -2.3743613      39.331233      393.94445      1.1221565      5518350.7    
     69000   301.30183     -2.9375008      38.100177      393.51396      1.046475       5548479.1    
     70000   297.6898      -2.1095778      42.306412      394.25217      1.0076305      5574185.3    
     71000   301.39168     -3.2222984      37.804563      393.04042      1.100274       5590750.3    
     72000   299.96105     -2.7378694      39.746199      393.76496      1.0626535      5619547.8    
     73000   299.78266     -2.8037097      40.05703       393.79779      1.0318314      5637488.3    
     74000   302.04634     -5.5925605      37.227322      390.87152      1.0487186      5660366.1    
     75000   298.35542     -4.5232512      41.31378       391.63752      0.95058102     5689310.1    
     76000   298.21418     -4.1099708      41.668576      392.23762      0.97156755     5708156.9    
     77000   301.26819     -2.8230558      38.020615      393.50884      1.0332124      5720136.9    
     78000   302.38642     -3.1875088      36.502215      392.95594      1.0365362      5730385.6    
     79000   298.62326     -2.877589       40.72636       393.01432      1.0909045      5754479.6    
     80000   298.36966     -2.9034071      41.722095      393.68261      0.95456517     5792489.9    
     81000   299.70339     -1.4944779      39.673093      394.62881      1.0040121      5812213.5    
     82000   303.11455     -2.3971859      35.732229      393.84228      1.13172        5829387.8    
     83000   297.78263     -1.3604928      41.897941      394.7032       0.94343839     5847181.7    
     84000   300.25007     -2.8772283      39.261644      393.4848       1.0332132      5866427.1    
     85000   301.82865     -2.4308754      37.10184       393.64882      1.055762       5876916.3    
     86000   300.18368     -3.6755274      38.304047      391.64994      1.1041607      5893499.7    
     87000   298.80956     -2.1468775      40.300879      393.54113      0.95704016     5902758      
     88000   298.38283     -4.4490836      40.907497      391.33801      1.0194244      5924082.2    
     89000   300.34024     -3.158331       37.911302      391.9606       1.1378046      5940481.9    
     90000   304.18488     -2.8851107      33.507145      392.40226      1.0783798      5953499.3    
     91000   297.00803     -3.9833308      41.882773      391.14393      1.0105848      5966285.8    
     92000   298.52215     -3.5704957      40.004327      391.47913      0.96607877     5995310.4    
     93000   301.05147     -3.3480696      37.362877      392.06833      1.0451626      6018614.1    
     94000   300.57962     -2.2437863      37.483727      392.73227      1.1049842      6049655.7    
     95000   300.00504     -1.252519       38.500521      394.05696      0.97632492     6062450.4    
     96000   300.1008      -1.6027564      38.374335      393.69443      0.97401773     6080051.8    
     97000   298.62417     -1.2136712      40.093121      394.04607      1.0100263      6106609.3    
     98000   302.55872     -1.5521124      35.457509      393.75155      1.0829223      6120562.7    
     99000   299.85257     -2.1529263      39.000321      393.47501      1.0263295      6138755.3    
    100000   298.52906     -1.2268283      40.015707      393.84239      0.96715525     6147377.1    
    101000   300.12866     -1.7518514      38.225193      393.42932      0.98142192     6148542.9    
    102000   300.13326     -2.8358446      38.170468      392.29608      0.96655408     6145657.5    
    103000   300.59269     -4.1538324      37.485218      390.83926      1.0305679      6139412.4    
    104000   301.02261     -3.3429923      36.897293      391.57349      0.98087417     6129677.5    
    105000   298.76507     -3.3382774      40.307576      392.30351      0.94089666     6131546.3    
    106000   300.15539     -2.6080248      38.021167      392.40092      0.969524       6124672.7    
    107000   300.42866     -1.3024734      36.78356       392.79388      1.1655773      6126820.8    
    108000   299.15268     -3.1444433      39.346149      391.99692      0.96534843     6132842.9    
    109000   299.07084     -2.4170439      38.672053      391.95288      1.0162535      6135391.1    
    110000   301.99737     -3.3797647      36.044366      391.84312      1.1198483      6143489.8    
    111000   301.95544     -2.7765278      36.556036      392.90816      1.032999       6166723.1    
    112000   298.11332     -2.3769689      40.652234      392.83432      0.98836811     6202190.8    
    113000   299.41021     -0.84892445     38.786217      394.03879      1.0235974      6221409.8    
    114000   301.33126     -2.2319991      36.544103      392.69839      1.019388       6245577.8    
    115000   300.97117     -2.7231757      37.063803      392.29865      1.0733617      6257335.2    
    116000   299.02754     -1.6553781      39.027807      393.0188       0.95913479     6274984.6    
    117000   299.70279     -1.8074135      38.608373      393.25044      1.0284969      6293606.4    
    118000   302.05578     -1.0005867      35.366129      393.61353      1.0522257      6319977.5    
    119000   300.08365     -0.7052623      37.559793      393.75698      1.0319897      6342268.4    
    120000   297.55413     -2.6262282      41.157555      392.42531      1.0018803      6356735.3    
    121000   299.76741     -1.8143484      38.086323      392.79831      1.0641647      6372188.7    
    122000   303.11814     -2.2601388      33.721339      391.97271      1.1038477      6388545.5    
    123000   300.48032     -1.8752822      36.964201      392.46315      0.95481932     6402844.5    
    124000   298.00282     -0.47981713     39.861123      393.80894      0.99210465     6415055.2    
    125000   300.67455     -1.1424459      36.811923      393.27471      1.0150488      6426810.8    
    126000   300.28081     -1.6734722      37.069113      392.53259      0.99966871     6442135.5    
    127000   300.07783     -2.5802475      37.430331      391.74561      1.0161829      6432949      
    128000   299.38552     -2.6435051      38.076217      391.50485      0.95312174     6437965.9    
    129000   299.54832     -1.8183827      37.668069      392.11544      1.0052893      6440688.8    
    130000   301.08216     -2.9888286      35.88084       390.98204      1.0176143      6433591.8    
    131000   301.68718     -3.0299494      34.963176      390.74282      1.0021208      6442871.6    
    132000   298.38265     -2.2750663      39.564636      392.16895      0.9733982      6465510.8    
    133000   297.65804     -0.80893608     40.056131      393.26476      1.0699957      6496737.6    
    134000   302.67077     -0.44433822     34.115505      393.6506       1.0512608      6518627.8    
    135000   299.48782     -0.63833454     37.229936      392.78541      1.0620291      6539987.3    
    136000   299.28578     -1.2228084      37.973928      392.70463      1.0445006      6554589.1    
    137000   299.73544     -1.6636656      37.104832      391.92947      1.0390299      6568322.6    
    138000   301.19085     -2.1746117      35.589795      391.63448      1.0454181      6595595.8    
    139000   301.1832      -3.3052662      35.819415      390.72435      1.0068839      6603754.1    
    140000   297.48734     -1.3994192      39.637065      392.0522       0.97724618     6614441.1    
    141000   299.72481     -1.1984126      37.326779      392.60403      1.0064735      6621003.6    
    142000   301.02954     -3.4615014      36.055711      390.62165      0.99198239     6630023.2    
    143000   300.62825     -2.7940174      36.068963      390.82511      1.0169238      6658620.3    
    144000   300.07336     -1.231617       36.199664      391.85826      0.96092402     6688757.4    
    145000   298.03379     -1.7236591      39.415827      392.15663      1.021534       6711308.9    
    146000   301.27442     -2.5539001      35.409741      391.17453      1.0357912      6728595.7    
    147000   300.70876     -2.6393179      35.607166      390.61377      1.0439618      6754742.6    
    148000   298.54927     -2.2065314      38.47481       391.34583      1.0016589      6792238.4    
    149000   300.65483     -1.9232938      35.930115      391.5886       1.0640366      6816203      
    150000   300.44138     -2.526249       36.345528      391.14719      1.0223866      6834994.6    
    151000   298.27347     -2.8750385      38.949108      390.8236       1.0086228      6856779.5    
    152000   302.53466     -2.322995       33.840084      391.33463      1.0917168      6881515.4    
    153000   299.30767     -1.6719355      37.245263      391.55287      1.037738       6905180.9    
    154000   298.71019     -1.241749       38.334886      392.36208      1.030677       6927804.4    
    155000   301.10967     -1.3805374      35.527666      392.26987      1.0202973      6949116.2    
    156000   298.78121     -0.90221185     38.274576      392.72576      1.0399764      6969158.9    
    157000   300.99618     -1.179903       35.56726       392.37512      1.0395829      6983394.2    
    158000   300.15399     -1.0410956      36.661313      392.60633      1.0149736      6990337.2    
    159000   298.57021     -1.9848748      38.575864      391.69344      0.97621029     6999014.4    
    160000   301.62038     -0.95493124     34.759377      392.5346       0.9974568      7009608.2    
    161000   301.50758     -1.1903249      34.600272      392.00594      1.0591603      7014801.3    
    162000   297.40653     -0.52466607     39.665737      392.85951      0.97302573     7022103.5    
    163000   300.61059     -2.7289787      36.587236      391.38743      1.0146415      7043287.5    
    164000   300.85152     -0.97257939     35.233252      392.07638      1.0583405      7057604.9    
    165000   300.50156     -0.89323525     35.652517      392.15878      0.97864344     7065835.8    
    166000   299.25361     -0.80229772     37.432607      392.54556      0.9898594      7072438.2    
    167000   299.31325     -1.7735106      37.709359      391.92203      1.0041452      7083948.8    
    168000   300.37859     -1.8002009      35.572286      391.02532      1.1062728      7097655.2    
    169000   302.30834     -1.7284261      33.366484      391.18643      1.0338381      7130165.8    
    170000   298.57175     -3.4997746      38.498667      390.10317      0.9764136      7165134.7    
    171000   299.35676     -3.1526206      37.084712      389.97002      1.0083637      7187807.5    
    172000   300.24156     -2.2630215      36.037477      390.86472      1.0276398      7215474.7    
    173000   301.35112     -2.0570546      35.510763      391.86361      1.0861657      7228876.7    
    174000   301.9164      -1.5563246      33.947935      391.47383      0.9784207      7260568.8    
    175000   296.81692     -0.46878805     39.905632      392.45403      0.97022131     7284132.1    
    176000   300.44911     -2.1283469      36.157843      391.3666       1.0617086      7303839.3    
    177000   301.57104     -1.8601618      34.358046      391.16935      1.0771348      7313912.2    
    178000   300.01403     -1.7319922      36.048663      391.13632      0.97188617     7317185.6    
    179000   300.12351     -2.0422823      36.333422      391.241        0.99502036     7321659.5    
    180000   300.9849      -1.28003        34.704248      391.39857      1.024745       7338465.6    
    181000   297.94664     -0.8519315      38.52245       392.03133      0.94954992     7345989.7    
    182000   300.3811      -2.0219997      35.930906      391.16513      0.99969011     7351579.1    
    183000   299.7834      -2.3498342      36.064074      390.2596       1.0313211      7356112.5    
    184000   300.33249     -1.1287082      35.766276      391.83598      1.0388705      7361533.9    
    185000   300.29308     -1.8670483      35.551062      390.83555      1.0297997      7370874.4    
    186000   300.21384     -1.3544758      35.698702      391.40152      0.99786038     7379429.2    
    187000   300.65683     -0.77531884     35.089409      391.89825      0.98545632     7396351.8    
    188000   300.02542     -0.89187384     35.993155      391.93448      0.99924325     7403982.9    
    189000   297.52129     -1.1308768      38.866851      391.5909       0.99593502     7416703.7    
    190000   301.68469     -1.8292857      34.157179      391.13453      1.0639306      7429359.7    
    191000   300.65274     -1.7508328      35.115096      390.94356      0.9872611      7437065.1    
    192000   298.99954     -0.88721056     36.905746      391.63161      0.98000391     7440925.6    
    193000   299.99723     -0.86287498     35.759251      391.69604      1.0458599      7450895.3    
    194000   301.40314     -1.4446517      33.958625      390.98575      0.991068       7463923.3    
    195000   299.77896     -2.2302457      36.21117       390.52099      0.97552544     7467873.6    
    196000   299.94921     -3.1720044      35.958778      389.52933      0.97691442     7475801.3    
    197000   300.29551     -2.8484247      35.371995      389.678        1.0300189      7479311.4    
    198000   300.10117     -2.3604859      35.719367      390.28216      1.0212641      7491688.1    
    199000   299.30596     -1.9794227      36.15314       390.15123      1.0015654      7525474.6    
    200000   299.78012     -1.4867665      35.725294      390.77998      1.01104        7543179      
    201000   299.97497     -1.0993016      35.707914      391.3818       1.0094393      7556723.4    
    202000   300.82065     -0.60208684     34.433197      391.61011      1.0168896      7569339.4    
    203000   299.82353     -1.5526324      35.822546      390.863        1.0037345      7581769.4    
    204000   300.03734     -2.0875866      36.189188      390.94898      1.0424174      7590203.7    
    205000   299.99656     -1.9573482      35.740193      390.58172      1.0020503      7585232.3    
    206000   300.77969     -1.5952415      34.686262      390.8213       0.98703198     7582983.1    
    207000   301.15496     -2.8587245      34.783596      390.10148      1.0080287      7589011.7    
    208000   297.62064     -1.4025095      38.391136      390.96171      0.96822401     7593202.6    
    209000   300.65018     -1.8297506      34.685703      390.4322       1.0397351      7593358.6    
    210000   299.8724      -0.55711766     34.967281      391.06136      1.0400003      7592372.7    
    211000   301.60401     -2.4838367      33.675556      389.9024       1.0467075      7594666.4    
    212000   298.31892     -0.72291694     37.260263      391.34093      0.94351982     7587636.8    
    213000   298.83034     -1.6224888      37.315553      391.10489      0.95619954     7589531.8    
    214000   302.85281     -1.6936085      31.949687      390.45201      1.0192452      7587663.2    
    215000   300.76334     -1.2836311      34.347529      390.77473      1.031619       7581371.8    
    216000   297.83534     -1.8270379      37.909334      390.31073      0.95163102     7574933      
    217000   300.74392     -1.664836       34.283705      390.30661      0.96818186     7567428.3    
    218000   300.47289     -2.1964928      34.464495      389.6334       0.95981572     7567717.2    
    219000   299.43272     -1.9465055      35.257422      389.43919      1.0346436      7561665.6    
    220000   299.49393     -1.8715892      35.435027      389.7645       1.0051519      7550610.8    
    221000   298.55952     -0.70486099     36.641975      391.02685      0.97351576     7545537      
    222000   302.69389     -0.91089914     31.795349      390.89137      1.032805       7541393.5    
    223000   299.4301      -0.25145953     35.403268      391.27697      0.95787691     7554748.6    
    224000   299.61083     -0.33679059     35.31043       391.31375      1.0091248      7554660      
    225000   299.52265     -0.38312182     35.431053      391.28316      1.0023697      7555645      
    226000   301.7109      -0.33277087     32.740124      391.24516      1.0301561      7558352.3    
    227000   298.61205     -1.664466       36.602182      390.08993      0.93618253     7556569.3    
    228000   299.39109     -1.4507922      35.229537      389.85751      1.0071268      7559297.4    
    229000   301.31551     -1.1287429      32.93332       390.17214      1.0250956      7556171.3    
    230000   299.1958      -2.3617445      35.181007      388.66576      0.93769265     7555659.8    
    231000   298.69983     -2.3972712      35.91957       388.77891      0.97995368     7544322.9    
    232000   301.83317     -1.6395909      32.030661      389.3743       1.0529172      7544338.8    
    233000   300.13008     -1.1075324      34.250884      390.10103      1.0084945      7551501.8    
    234000   298.53948     -2.2615949      36.163172      388.96748      0.94014549     7562809.3    
    235000   301.86582     -1.5617278      32.16013       389.62047      1.0462168      7558012.8    
    236000   300.7568      -0.63681228     33.289388      390.35564      0.97432375     7558998.4    
    237000   297.61257     -2.5319559      37.250421      388.68195      0.97279479     7561478.1    
    238000   300.70756     -2.5579175      33.12101       388.20759      1.0431101      7568126.1    
    239000   300.18293     -1.6317121      33.677657      389.06647      1.0128139      7571397.8    
    240000   300.41421     -1.1843948      33.597657      389.70886      1.0062615      7575618.1    
    241000   299.43446     -1.3814766      35.086658      389.83552      0.98038743     7585447.8    
    242000   300.10091     -1.5728061      34.218327      389.5685       1.0020221      7586975.7    
    243000   301.51351     -1.0242777      31.998099      389.57687      1.0180874      7593353.9    
    244000   299.26247     -2.3724279      34.854774      388.40814      1.0739668      7590360.1    
    245000   299.37798     -1.4867622      34.840114      389.41652      0.99223687     7604571.7    
    246000   300.80289     -2.4221428      33.03045       388.36619      0.9959007      7610498.7    
    247000   300.06087     -2.9415525      33.452144      387.38595      0.97465423     7620417.2    
    248000   299.52305     -2.0215152      34.456245      388.67043      0.9656085      7608557.8    
    249000   299.89134     -2.770198       34.563408      388.46694      1.0159215      7623076.7    
    250000   300.009       -1.4208474      33.807442      389.20026      1.0307821      7651771.4    
    251000   299.11185     -1.2654439      35.157709      389.63892      1.0318236      7656725.7    
    252000   302.01132     -0.94799913     31.257356      389.50447      0.98871542     7673413      
    253000   299.49633     -1.6400619      34.551414      389.11528      0.98618066     7681150.7    
    254000   300.15682     -1.6606306      33.642112      388.97096      1.0116797      7695654.2    
    255000   300.55271     -3.0022516      33.392311      387.85038      1.0256385      7715768.7    
    256000   298.6225      -3.0901844      35.855942      387.9304       1.0296393      7736273.6    
    257000   301.11568     -0.60674258     32.510713      390.03385      1.0575228      7765787.1    
    258000   301.8646      -2.2276452      31.843132      388.63609      1.0162286      7786540.2    
    259000   297.19519     -1.4026923      37.02721       389.09159      0.98979536     7814634.8    
    260000   300.70081     -1.3055157      33.076462      389.40741      1.0344417      7833136.9    
    261000   299.7687      -0.70994194     33.273137      389.09107      1.0657675      7858354      
    262000   302.08354     -2.3437668      31.432341      388.36958      1.0202267      7873853.1    
    263000   297.88338     -1.3529013      36.129475      389.06215      0.97033735     7894736.9    
    264000   300.03368     -1.1664436      33.73799       389.41457      1.054081       7907788      
    265000   300.8871      -1.7399213      32.976134      389.09425      1.0441784      7924942.5    
    266000   301.28712     -0.81532974     32.194831      389.7133       1.0564974      7944593.9    
    267000   300.4669      -0.77593145     33.036095      389.61843      1.0003316      7960570.7    
    268000   297.08521     -1.5320168      37.121704      388.92597      0.96829668     7977564.8    
    269000   301.31632     -0.6200001      31.985447      389.73397      1.0276094      7988081.3    
    270000   300.9437      -2.0335456      32.795799      388.6876       1.0040264      7989711.8    
    271000   299.34771     -2.1769148      33.965629      387.81588      0.99025384     7994746.1    
    272000   299.31918     -1.4470005      34.158598      388.70483      0.97816774     7985247.8    
    273000   299.83461     -0.46023965     33.67566       389.82168      0.99871998     7979648.1    
    274000   301.86282     -1.3812006      31.205751      388.84304      0.98152206     7971729      
    275000   300.45424     -1.8209253      32.491479      388.01377      1.0111124      7976972.9    
    276000   297.29299     -1.9060502      36.579032      388.25638      0.97551769     7973563.1    
    277000   302.07672     -1.3778025      30.306867      388.20196      1.0199853      7969116.1    
    278000   299.09725     -0.10377653     33.121359      388.74687      1.0690545      7966986.8    
    279000   300.4175      -1.382471       32.341867      388.25891      0.98922179     7960727.9    
    280000   298.88809     -2.3934842      34.106619      387.19365      1.0055481      7951730.4    
    281000   298.10577     -0.45034226     33.432117      387.53185      1.0966988      7949259.1    
    282000   300.28395     -1.4432498      32.522153      388.21958      1.0200103      7948886.6    
    283000   300.95827     -2.9991241      31.282371      386.22593      1.0184655      7943132.4    
    284000   298.80934     -1.9648603      34.378113      387.80011      1.0124644      7941048.5    
    285000   299.90947     -1.5944466      33.195005      388.29585      0.98106536     7935103.7    
    286000   302.13477     -2.6230537      30.349155      387.06804      1.0051182      7936540.8    
    287000   298.41556     -1.1544035      34.490541      388.25466      0.98252099     7934436.2    
    288000   300.13258     -1.2614153      32.68001       388.37924      1.0682156      7950734.4    
    289000   301.03393     -0.98154992     31.345275      388.39638      1.0241781      7966448.1    
    290000   298.8079      -0.14034415     34.236509      389.48131      1.0139399      7978626.5    
    291000   300.58072     -0.59012995     32.253292      389.1568       1.0140934      7990183.7    
    292000   299.6673      -0.90966496     33.175454      388.67306      0.98970251     8002962      
    293000   300.16384     -0.86809597     32.281763      388.41149      1.0532936      8006468.7    
    294000   299.55817     -2.4991274      32.876985      386.65534      1.0491485      8020676.4    
    295000   299.86518     -1.1899958      32.849517      388.30213      0.96977368     8038137      
    296000   298.55352     -0.3423528      34.404756      389.145        0.98874163     8041597.7    
    297000   301.62307     -0.35215317     30.902545      389.28374      1.0734148      8043261.7    
    298000   301.25703     -2.1521881      31.401768      387.54758      0.99503729     8042610.4    
    299000   298.6834      -1.8391031      34.265478      387.66345      0.94753297     8049292      
    300000   299.43408     -2.5040244      32.97662       386.60249      0.99683277     8049238.6    
    301000   300.64565     -2.4028381      31.849321      387.01734      1.0243064      8045126.7    
    302000   301.50158     -1.7422805      30.610536      387.45711      0.96893877     8041544.3    
    303000   297.90297     -0.97093854     34.870964      388.2089       0.96804649     8035139.8    
    304000   299.88439     -0.80864568     32.656129      388.51294      1.0117667      8039447.3    
    305000   300.97209     -1.3236239      31.385307      388.02079      0.99581385     8036984.3    
    306000   299.27253     -0.91469051     33.060862      388.08393      0.94678241     8040192.5    
    307000   300.14984     -0.61858993     32.544243      388.90682      0.9928687      8036532.9    
    308000   299.88244     -1.8168847      32.460946      387.30721      1.058094       8038363.4    
    309000   299.11808     -0.49521372     33.424957      388.68381      1.0099372      8038429.3    
    310000   301.40734     -1.3782258      31.097308      388.19586      0.98416035     8038010.9    
    311000   301.46697     -0.30129657     30.502951      388.74935      0.97057019     8043280      
    312000   299.16517     -0.41772444     32.778352      388.17069      1.0631294      8045010.4    
    313000   297.57698     -0.51176871     34.488164      387.89756      1.0394344      8056981.4    
    314000   300.73933     -1.9996989      31.370049      387.05263      1.0067467      8058669      
    315000   300.94784     -2.3765494      30.941816      386.49554      1.0429923      8067696.3    
    316000   300.66275     -2.0732653      31.431337      386.94927      1.0264148      8076566.3    
    317000   298.88344     -1.1786755      33.34185       387.63816      0.99005171     8094250.1    
    318000   298.94979     -1.2131971      33.441737      387.78244      1.0020988      8128281.7    
    319000   302.70654     -1.2880338      28.826533      387.56047      1.0777261      8162012.4    
    320000   300.53408     -2.2132371      31.977814      387.20275      1.0425572      8196282.7    
    321000   298.08382     -1.3890505      34.043797      387.17871      0.98016436     8234972.3    
    322000   300.54853     -1.5618773      31.713332      387.60681      1.0319955      8259766.3    
    323000   301.64693     -0.63679551     29.918307      388.04324      1.0246851      8266060.8    
    324000   299.14288     -1.1594886      32.217093      386.84116      1.119607       8284169.1    
    325000   300.46183     -1.6469936      31.525537      387.23077      1.0002748      8304199.9    
    326000   298.93274     -2.0897758      33.430969      386.87482      1.0191073      8324035.6    
    327000   299.99858     -1.0524797      31.81869       387.56749      1.0388692      8350817.4    
    328000   301.0008      -0.20699965     30.631546      388.4178       1.0416816      8378421      
    329000   300.14213     -0.64821539     31.842588      388.16637      1.0307634      8399390.3    
    330000   299.2542      -0.53847059     32.666301      388.04378      1.017239       8431943.9    
    331000   299.77096     -1.8683766      32.221261      386.88344      0.98884202     8453263.7    
    332000   300.64286     -1.1954393      30.849426      387.22153      1.0411309      8467818.3    
    333000   300.36409     -0.68892902     31.50303       388.05009      1.0372114      8491280.9    
    334000   299.7078      -0.72363646     32.041574      387.77337      1.0001923      8515137.2    
    335000   298.23867     -0.98444802     33.938843      387.66253      1.0094579      8538455.3    
    336000   301.93433     -0.60979086     29.648615      388.14237      1.0447357      8561490.1    
    337000   300.76655     -2.6185895      30.933074      386.02914      1.0186806      8578532.4    
    338000   298.74177     -1.0866906      33.154229      387.37404      0.99118428     8589842.4    
    339000   299.43797     -1.9162467      32.607524      386.82579      0.98333418     8597492.2    
    340000   300.67153     -0.85258245     30.325048      387.07411      1.1198901      8609591.8    
    341000   301.33632     -0.4048898      29.916034      387.90345      1.0291051      8622855.3    
    342000   298.11934     -1.3068528      33.794389      387.05374      0.94497209     8632981.2    
    343000   299.55005     -0.49399403     32.18606       387.95988      0.99238396     8637842.4    
    344000   302.40507     -3.1845046      28.788652      385.26756      1.0623492      8663212.4    
    345000   299.01056     -1.8678695      32.832084      386.5904       0.98797459     8668907.2    
    346000   298.34515     -0.9917443      33.483386      387.32642      0.97135145     8656528.8    
    347000   302.20396     -2.6671915      28.524879      385.28191      1.0500548      8645977.9    
    348000   300.70446     -2.6920239      30.023735      384.97251      0.97246009     8648722.3    
    349000   297.89229     -2.1429419      33.617138      385.77037      0.94035169     8641548.2    
    350000   299.47208     -0.78703206     31.664464      387.05252      1.0049396      8637719.1    
    351000   301.91998     -1.6673802      29.114164      386.53326      1.0129162      8641296.7    
    352000   299.92198     -2.1200825      31.493647      386.08373      1.0157247      8640212.3    
    353000   298.89685     -1.1444777      32.416191      386.76265      0.98536801     8643684.8    
    354000   300.7961      -1.0141196      30.201757      386.93744      0.99051618     8640840.1    
    355000   299.09572     -1.0290548      32.205109      386.90352      1.0033894      8637768.2    
    356000   301.36935     -0.84204088     29.216125      386.80567      0.99806846     8639639.4    
    357000   299.53398     -0.75605804     31.457824      386.95047      0.96816335     8632930.1    
    358000   298.27115     -0.15452641     32.29311       386.88535      1.0662558      8627820      
    359000   300.21966     -0.98212708     30.785205      386.86729      1.0229881      8628283.4    
    360000   300.71858     -1.0930507      30.415313      386.97987      0.99111855     8630076.4    
    361000   300.63021     -0.23016688     30.173533      387.49586      1.0193954      8637698.2    
    362000   298.62147     -0.1232214      32.667347      387.70754      0.97624192     8641488.1    
    363000   299.37669     -0.17666355     31.041387      386.92636      1.0827134      8644793.8    
    364000   301.45085     -1.5315872      28.946725      385.94366      1.0429388      8646672.8    
    365000   299.67252     -1.7333584      31.393806      386.07392      0.96447832     8640359.9    
    366000   298.38227     -0.89252472     32.369751      386.35615      1.0239144      8646327.6    
    367000   300.30267     -0.78279484     30.434093      386.81424      1.0230547      8653189      
    368000   301.46511     -1.1818584      29.05161       386.41524      1.0060468      8648450.6    
    369000   298.80825     -0.47656644     31.850568      386.75957      1.0291324      8641250.1    
    370000   298.64948     -0.88579872     32.352039      386.66297      0.98553073     8640692.4    
    371000   300.6137      -0.41724339     30.075539      387.19116      1.006647       8642242.9    
    372000   302.47917     -0.32495998     27.689584      387.11617      1.010998       8643301      
    373000   298.68054     -1.5976946      32.243753      385.87973      0.9669519      8638365.4    
    374000   297.59327     -2.1190683      33.330484      385.15195      0.93719816     8638092.7    
    375000   302.76687     -2.4078102      27.29073       384.97664      1.004183       8625263.2    
    376000   299.49598     -1.3366816      29.795964      384.66279      1.0889143      8617716.5    
    377000   298.66383     -2.6215466      32.10547       384.69772      0.98221971     8622234.6    
    378000   299.24248     -1.4090623      31.357233      385.85018      0.99014798     8632353.5    
    379000   302.74405     -1.3635554      26.878187      385.58121      1.0538137      8629049.8    
    380000   300.29467     -2.608814       30.310201      384.85481      0.95821143     8638408.2    
    381000   298.51809     -1.3561243      31.825431      385.50977      0.95394911     8636782.2    
    382000   300.40171     -2.1420511      29.530412      384.6691       0.99772089     8636921.8    
    383000   299.93668     -2.5085082      30.368229      384.58737      1.0147736      8630357.6    
    384000   299.58927     -1.041462       30.449663      385.72267      1.0239071      8643536.3    
    385000   300.7098      -0.62778063     29.340273      386.35965      0.99207318     8641222.6    
    386000   301.19173     -0.8366904      28.563513      385.94716      0.9998518      8640158.8    
    387000   297.17754     -1.4680362      33.428354      385.4064       0.97427153     8636354      
    388000   301.28148     -1.1820529      28.434913      385.57994      1.004654       8633509.3    
    389000   302.14985     -1.0053591      27.113735      385.46825      1.0196252      8635293.9    
    390000   297.88377     -0.83498238     31.998365      385.44942      0.97774928     8642913.6    
    391000   299.35554     -1.0880084      30.592839      385.54131      0.97810983     8644053.2    
    392000   300.47365     -1.4708147      28.938385      384.83386      1.0182457      8654727.3    
    393000   300.38644     -1.0577922      28.861717      385.06649      1.0194056      8646575.2    
    394000   299.37355     -0.872676       30.370038      385.55526      0.99159011     8631017.1    
    395000   300.95558     -0.49344833     28.110708      385.55674      0.96852459     8618441.8    
    396000   299.51828     -0.23546278     30.063037      386.05761      0.92602188     8597445.9    
    397000   299.30704     -0.89435577     30.431312      385.51575      0.98703177     8582650.9    
    398000   300.61103     -0.32472797     28.666556      385.87151      1.009535       8572250      
    399000   300.27946     -1.1154251      29.292322      385.31223      0.98994154     8550281.7    
    400000   298.36016     -2.5231117      31.550366      383.87989      0.93068081     8528810.5    
    401000   301.33069     -1.0368185      27.482146      384.83094      0.99616644     8521327      
    402000   300.82748     -2.2689342      28.666021      384.18421      1.0101331      8512116.3    
    403000   298.51212     -1.8650672      30.894111      384.0624       0.97536856     8499343.7    
    404000   299.99401     -1.4200243      28.941753      384.31757      0.99919323     8491095.2    
    405000   300.92472     -1.4711091      28.048481      384.48014      0.99758204     8489127.3    
    406000   299.72024     -1.9157114      29.478947      384.03346      0.97776395     8488360.4    
    407000   298.86455     -1.398785       30.097827      384.15157      1.0181765      8499453.3    
    408000   300.55757     -0.78523273     28.603686      385.28456      1.0271188      8498439.8    
    409000   299.13129     -0.97976917     29.914188      384.70419      1.0359087      8507028.6    
    410000   300.5605      -1.315714       28.302514      384.45639      0.98803234     8520616.3    
    411000   300.75173     -2.529182       28.389944      383.55779      0.96827567     8514811.6    
    412000   299.10148     -2.383433       30.043582      383.39446      0.96099273     8515753.6    
    413000   299.41143     -3.1440288      30.090613      383.04953      1.0242868      8505468.7    
    414000   300.35529     -3.0973603      28.483053      382.61122      0.98007292     8505036      
    415000   300.87472     -1.1958934      27.83808       384.48549      0.98854044     8502985.8    
    416000   300.10647     -1.2449416      29.005849      384.6905       0.9848596      8499071.1    
    417000   298.26721     -1.319953       31.311352      384.73349      0.98322168     8501889.4    
    418000   300.92224     -1.3935836      27.973046      384.47929      1.0317852      8491250.5    
    419000   300.19305     -2.2144377      29.05756       383.87569      1.0194714      8488413.5    
    420000   300.5827      -0.5146233      28.215375      385.19674      0.99443258     8490998.5    
    421000   299.94316     -1.2158574      29.458798      384.97829      0.97817829     8499717.3    
    422000   300.13057     -0.45989126     28.900544      385.3989       0.99757564     8506790.1    
    423000   298.92298     -1.025621       30.349543      384.84594      0.99531124     8507170.4    
    424000   300.88446     -2.1397689      27.968956      383.68408      1.0623216      8514373.9    
    425000   300.30598     -0.37893219     28.505975      385.29392      1.001698       8524872.5    
    426000   299.79461     -1.6016787      29.033224      383.99023      0.97180833     8529604.9    
    427000   299.12804     -1.4121994      30.005167      384.35887      0.99088219     8523748.7    
    428000   300.12349     -0.84845276     29.01266       385.11404      1.0035789      8518483.2    
    429000   302.08681     -1.6186646      26.47435       384.14058      0.97783399     8528887.7    
    430000   298.71627     -1.3520878      30.37842       384.3025       0.94985347     8517551.2    
    431000   299.12429     -2.2392236      30.008409      383.53063      0.97813426     8511320.4    
    432000   299.35709     -1.5868951      29.583471      384.03489      1.0100315      8501315.2    
    433000   302.56364     -1.0806673      25.764831      384.53618      1.0499416      8500040.8    
    434000   299.05448     -1.3843456      29.635473      383.92955      0.95904148     8496503.6    
    435000   298.77399     -1.4221018      30.106625      384.02934      0.96307362     8505506.5    
    436000   300.82967     -1.4940453      27.777342      384.07302      1.0344556      8513770      
    437000   300.97364     -2.444442       27.731264      383.24778      1.0138289      8529171.7    
    438000   298.14171     -2.4219253      29.824938      381.99583      1.1203712      8549831.1    
    439000   299.15094     -2.1702273      29.547588      383.1705       1.0250459      8569961.4    
    440000   301.19411     -2.0447751      27.192796      383.37119      1.0654474      8583625      
    441000   299.33255     -1.5604212      29.245753      383.69447      0.99730612     8600328      
    442000   300.73681     -1.8387734      27.991429      383.83194      0.9992275      8603584.6    
    443000   299.92267     -1.1034597      28.420409      384.02794      0.98625966     8618888.6    
    444000   299.05334     -1.2259585      29.665341      384.11644      1.0167516      8627485.6    
    445000   300.41613     -1.0877371      28.177271      384.38741      1.0156834      8637965.8    
    446000   299.0712      -1.9004951      28.997543      382.79535      1.0337523      8649866.2    
    447000   299.68583     -0.8218414      28.874179      384.48164      1.0218053      8657579.7    
    448000   300.71764     -1.5838146      27.878608      383.95128      1.0098593      8664781      
    449000   299.91706     -1.3760618      28.701464      384.02972      1.0250943      8670787.3    
    450000   299.75803     -1.7111529      29.118099      383.92212      1.0306013      8683472.1    
    451000   300.30826     -0.81527149     28.275798      384.63012      0.99339674     8691303.6    
    452000   300.43715     -1.1962723      28.249082      384.3757       0.98117295     8697476      
    453000   299.70288     -1.296189       29.191096      384.34449      0.99776343     8704825.7    
    454000   299.99533     -1.2908666      28.749302      384.25584      1.0229467      8710655.8    
    455000   299.99547     -1.5361529      28.758936      384.02036      0.99681865     8709627.3    
    456000   300.64801     -2.3767847      27.834024      383.03091      0.9946752      8705629.2    
    457000   299.74055     -0.99105161     28.798858      384.3022       0.99220475     8711687.7    
    458000   299.62559     -0.68598975     29.175261      384.84693      0.99500609     8713562.1    
    459000   300.50154     -0.6442395      28.097139      384.85237      1.0298282      8722730.9    
    460000   300.0892      -0.97234603     28.488097      384.42481      0.98760698     8725655.3    
    461000   299.29714     -0.9115096      29.277799      384.33331      0.97286175     8734005.7    
    462000   300.51321     -2.0516631      27.598505      382.96018      1.0372701      8739693.2    
    463000   298.63311     -2.4071382      30.463699      383.23382      0.99085009     8732409      
    464000   300.21711     -1.8849221      27.995359      383.17162      1.0413364      8739955.3    
    465000   301.25532     -1.7641595      27.294359      383.82617      1.0284559      8744033.8    
    466000   299.98928     -1.4940469      28.515703      383.81187      0.98831788     8755726.9    
    467000   297.84153     -0.73215791     30.563905      384.06755      1.0521155      8765583.5    
    468000   300.8556      -1.6462203      27.440442      383.61478      1.0023981      8767997.5    
    469000   301.02161     -1.6089324      27.02867       383.43775      1.0135433      8775689.4    
    470000   298.417       -0.76435018     30.365304      384.52119      0.98736746     8774801.3    
    471000   299.6878      -1.8866535      28.849315      383.39431      1.0059924      8781870.4    
    472000   300.63389     -1.4243741      27.665349      383.79785      1.0131334      8790974.3    
    473000   301.09911     -1.9242656      27.025711      383.21163      0.98888487     8788396.9    
    474000   299.06901     -1.9296783      29.283547      383.04956      0.94483553     8790167.8    
    475000   300.01093     -2.3431021      28.284042      382.7569       0.99215336     8790709.6    
    476000   299.09338     -2.3055502      29.388093      382.80723      1.00464        8788782      
    477000   300.68625     -1.9543773      27.465411      383.13018      1.0213073      8793627.1    
    478000   300.93315     -2.5660026      27.630785      382.97758      0.99765344     8809124.4    
    479000   299.9518      -1.3205412      28.453971      383.87906      1.0124468      8833513.2    
    480000   298.00844     -1.7506831      30.92952       383.61315      0.99964419     8845491.1    
    481000   301.75471     -2.8955561      26.327031      382.32139      1.0535167      8856664.1    
    482000   300.44742     -1.8357449      27.66195       383.1613       1.013485       8871452.5    
    483000   300.19589     -1.9537147      28.110168      383.1924       0.97012747     8883309.5    
    484000   299.37069     -2.0591398      28.902851      382.89821      0.99918819     8897796.4    
    485000   298.65663     -1.9340614      29.965031      383.23621      0.99787463     8903925.8    
    486000   301.3093      -2.7908746      26.271055      381.84035      1.0153224      8912408.1    
    487000   300.31757     -2.530438       27.710451      382.36067      0.99597806     8912277.9    
    488000   298.43149     -2.4432353      29.692635      382.18687      0.98007845     8912078.8    
    489000   300.13975     -2.4461385      28.351601      382.87464      0.9980506      8910375.1    
    490000   301.23321     -1.7555265      26.522498      383.03665      1.0182168      8915591.6    
    491000   300.11044     -2.1921349      27.876371      382.61855      1.0175035      8918295.8    
    492000   299.37402     -2.7634569      28.98317       382.27817      0.95610988     8922085.1    
    493000   298.73559     -2.7966697      29.214675      381.71715      1.0163151      8927517.5    
    494000   301.40384     -1.7141441      26.431268      383.18974      1.0314983      8930335.7    
    495000   299.72234     -2.8288658      28.568532      382.21239      0.99227376     8927866.4    
    496000   300.37582     -3.7889629      28.150405      381.61139      0.99880586     8931039.9    
    497000   299.10048     -2.0703111      28.925068      382.58788      1.0087136      8940503.5    
    498000   301.30844     -2.6213152      26.523413      382.26125      1.0276565      8940279.7    
    499000   300.31875     -1.481187       27.806163      383.50704      1.0205604      8947887.4    
    500000   298.85904     -1.0979973      29.088159      383.43614      0.95643218     8957277.6    
    501000   300.52846     -1.1434314      27.532192      383.82024      0.97277496     8956035.3    
    502000   299.48252     -1.7224417      28.491909      382.95697      1.0015627      8964261.7    
    503000   300.20243     -0.47315487     27.776732      384.3473       1.024188       8963080.1    
    504000   299.78033     -0.77158736     28.394886      384.16499      1.0173893      8964113.3    
    505000   299.60158     -0.43647439     27.996631      383.88926      1.0512323      8978991.5    
    506000   300.13784     -0.087292696    27.881071      384.76068      0.99587043     8993513.8    
    507000   300.95831     -0.34777316     26.945116      384.54006      1.0011677      9002688.1    
    508000   298.65291     -0.47366596     29.609523      384.33667      0.97309198     9008456.3    
    509000   301.10528     -0.44981043     26.698796      384.36651      1.0102199      9012645      
    510000   298.6184      -1.1752567      29.556173      383.54068      1.0088878      9022832.9    
    511000   300.04788     -0.94460936     28.053466      383.96876      1.0155623      9030130.3    
    512000   301.19226     -2.0842585      26.290031      382.42674      0.99231605     9030358.4    
    513000   299.19931     -2.1181979      28.896916      382.62939      0.97875172     9046626.7    
    514000   299.92131     -1.0849186      27.908765      383.53322      1.0094912      9056290.4    
    515000   301.21283     -1.305383       26.549564      383.48962      1.0064863      9067710.2    
    516000   298.44858     -1.3199627      29.938941      383.57678      0.99790844     9067893.7    
    517000   300.95472     -0.93818308     26.456182      383.45646      1.0344505      9076763.4    
    518000   299.87247     -1.7152702      28.398312      383.33433      0.99208452     9094288      
    519000   300.23166     -1.0654887      27.599364      383.61236      1.010387       9106239      
    520000   300.32038     -0.28608022     27.442483      384.34041      1.0140664      9116202.4    
    521000   300.03642     -0.22326803     27.707746      384.33076      1.0178809      9128797.2    
    522000   298.94613     -1.0826966      29.324671      383.79153      0.9842707      9135616      
    523000   300.89296     -0.36121644     26.611571      384.11535      1.0155982      9144938.5    
    524000   300.63543     -0.13344617     27.004721      384.42998      1.0318693      9154510.4    
    525000   299.21341     -0.52432349     28.582653      383.92576      1.0217152      9164155.2    
    526000   299.87407     -0.68786845     27.636271      383.60159      0.98788377     9179323.3    
    527000   299.38849     -0.44401593     28.584662      384.21631      1.0005804      9187854.9    
    528000   301.39645     -0.73502684     26.195309      383.92411      1.0295432      9195539.1    
    529000   299.82323     -0.70150608     28.037859      383.92908      1.0102906      9202294.4    
    530000   299.14765     -0.92068995     28.801282      383.66981      0.99972922     9211083.7    
    531000   299.89214     -0.81452381     27.898798      383.75896      0.99642943     9213438.7    
    532000   301.57243     -1.8228128      25.585853      382.43616      1.012489       9224523.6    
    533000   299.66942     -2.5244528      27.823988      381.70932      0.97720172     9225098.9    
    534000   298.57436     -1.2930774      28.896252      382.71056      1.0011567      9226651.7    
    535000   299.98947     -1.9723208      27.475125      382.29325      1.0375226      9226760.8    
    536000   299.76588     -0.83789348     27.97813       383.66476      1.016628       9224432.5    
    537000   301.57984     -1.6577144      25.939731      382.96395      0.97686457     9225734.4    
    538000   299.73081     -1.4017416      27.696049      382.77711      0.96921574     9220625.9    
    539000   299.42598     -1.7163391      28.092742      382.49665      0.96149988     9214532      
    540000   299.93376     -1.3278502      27.49985       382.89618      0.97499962     9209624.3    
    541000   299.89474     -0.44786727     27.636851      383.86675      1.011885       9205341.6    
    542000   300.26076     -0.69568479     27.331192      383.74861      1.0191505      9201978      
    543000   300.25523     -1.7852124      27.611192      382.9325       1.0013165      9217399      
    544000   300.34043     -0.46459684     27.194591      383.93785      0.99239463     9226078.1    
    545000   299.22227     -1.8202178      28.410355      382.46811      0.99420493     9237375.7    
    546000   299.75151     -0.72158539     27.840437      383.62628      1.021378       9245380.7    
    547000   302.53208     -1.1821551      24.635176      383.2675       1.0847486      9256737      
    548000   297.50377     -0.99458333     30.291222      383.13073      0.96728407     9265007      
    549000   300.15724     -2.2689422      27.273923      381.99495      1.0009722      9271474.2    
    550000   301.38879      0.18631329     24.178201      382.81923      1.1449923      9283486.6    
    551000   298.02336     -1.5015034      29.302477      382.25304      1.001109       9290808.8    
    552000   299.22959     -0.58908439     28.166217      383.46381      1.0248404      9301312.7    
    553000   300.85931     -1.5888026      26.09814       382.33432      1.0401329      9309193.3    
    554000   300.30424     -0.55937355     26.656861      383.2623       1.0046243      9334622.4    
    555000   301.00159     -0.52610828     25.924651      383.39274      1.0135656      9353376      
    556000   298.70565     -0.50285771     28.847637      383.60831      1.0278656      9376910.7    
    557000   298.97413     -0.68375874     28.073045      382.97214      1.0350537      9391398.9    
    558000   302.03414     -0.62285863     24.564455      383.16385      1.0313765      9413769.8    
    559000   299.63715     -0.99487271     27.145641      382.52218      1.0186505      9421799.8    
    560000   298.16616     -1.2101518      29.184521      382.59627      0.99155389     9437164      
    561000   300.91032     -0.6063751      25.756154      383.03543      1.0326177      9442421.9    
    562000   300.51542     -1.7424413      26.192515      381.86605      1.0220261      9452755.2    
    563000   299.54179     -3.4189046      27.515379      380.35447      0.97417188     9452739.5    
    564000   299.74797     -1.9110647      27.171685      381.76384      0.99441147     9444573.8    
    565000   300.9767      -2.5513586      25.907581      381.32082      1.0174946      9442161.1    
    566000   299.04055     -1.7959725      27.91706       381.78293      0.99831292     9435084.7    
    567000   300.3189      -2.8761064      26.945405      381.25154      1.0161613      9436773      
    568000   301.26276     -2.253411       25.231525      381.28293      0.98083623     9435094.7    
    569000   299.02262     -2.0654589      27.90827       381.48333      0.95584902     9425966.6    
    570000   299.89064     -1.4806496      26.811319      382.00356      0.98538411     9417681.3    
    571000   299.4929      -2.0614827      27.468874      381.60724      0.99414894     9409748.4    
    572000   300.92814     -2.5036488      25.763086      381.16628      1.0148127      9398942.3    
    573000   300.0422      -1.3073639      26.463797      382.00959      0.97927305     9394786.8    
    574000   299.51235     -1.1562781      27.290949      382.35766      0.9434245      9386473.8    
    575000   300.36832     -1.1185256      26.238396      382.3609       0.97654495     9380074.8    
    576000   299.42537     -0.78022785     27.174375      382.51368      0.98709267     9374989.1    
    577000   299.27656     -0.60058119     27.662236      383.00421      0.99715052     9368393.4    
    578000   301.01475     -1.1079789      25.55891       382.46077      1.0467079      9361001.4    
    579000   299.12769     -0.63231339     27.927423      383.06059      0.99711538     9355434.4    
    580000   300.44022     -0.55078981     26.11416       382.88991      0.96811966     9357210.6    
    581000   302.16473     -1.1448881      24.181905      382.41458      0.98325197     9354504.2    
    582000   298.19849     -1.6848356      28.670858      381.64637      0.95492366     9351816.3    
    583000   298.61001     -1.0583677      28.284173      382.37559      0.98573522     9348787.6    
    584000   302.32523     -0.50410149     23.604837      382.66919      1.0412836      9346192.9    
    585000   298.92683     -0.48025568     27.154392      382.20073      1.025285       9353618      
    586000   299.0685      -0.84346861     27.537609      382.38923      0.98683496     9352863.2    
    587000   301.90336     -1.7700174      23.85719       381.15388      1.0028273      9344092.7    
    588000   298.82045     -1.3202751      27.608916      381.68871      0.95378207     9332060.1    
    589000   299.80618     -1.0114775      26.422513      381.98348      0.97097431     9316928.3    
    590000   301.37031     -2.5086409      24.65241       380.5765       1.0008792      9312784.4    
    591000   298.7245      -1.2978649      27.494329      381.48242      0.9828404      9300416.5    
    592000   299.17599     -1.4470889      27.80466       382.18051      0.99679805     9296862.2    
    593000   301.89912     -0.74895836     23.949148      382.26186      0.99879518     9279032.3    
    594000   300.43227     -2.0568408      25.47052       380.73076      0.97299154     9271419.7    
    595000   299.73098     -1.3415153      26.227271      381.36876      1.0024532      9259187.4    
    596000   298.34663     -0.88630868     27.81864       381.76887      0.98657516     9255166.8    
    597000   300.71183     -1.5249428      25.463467      381.5881       0.99474653     9252573.4    
    598000   300.9082      -1.4869127      25.045984      381.44219      1.0071286      9247803.6    
    599000   300.18279     -1.2391704      25.57821       381.3594       1.010369       9245072.6    
    600000   298.47536     -1.0174939      27.692879      381.66503      0.95713904     9231673.1    
    601000   299.98351     -0.87549801     26.080689      381.98855      0.97738414     9220553.1    
    602000   301.76202     -0.44476943     23.522577      381.97642      1.0071071      9212453.2    
    603000   299.39728     -0.82005472     26.676596      381.94266      0.97838135     9206445.2    
    604000   299.22952     -0.25727969     26.761557      382.39088      1.0039047      9202138.6    
    605000   299.57002     -0.28796632     26.223024      382.22663      1.0845919      9210786.7    
    606000   300.82256     -0.9317976      25.004999      381.85448      0.9767137      9204303.9    
    607000   301.41428     -0.98157455     23.795705      381.29916      0.98555672     9203312.3    
    608000   298.65354     -1.3319518      27.239869      381.10948      0.98525872     9193986.9    
    609000   298.02521     -1.1242261      28.045285      381.37532      1.0011588      9195622.7    
    610000   301.86269     -0.89173151     23.462007      381.58861      1.0152854      9195320.1    
    611000   302.22766     -1.77958        22.664071      380.33691      1.0054006      9192054.6    
    612000   296.59742     -1.087675       29.527337      381.19578      0.9733961      9197309.1    
    613000   300.74754     -0.81410104     24.509888      381.38783      1.0244713      9201711.6    
    614000   301.68476     -1.2208821      23.180412      380.76625      0.99024255     9213648.5    
    615000   299.33224     -1.6777062      26.059368      380.39042      0.95003859     9207624.2    
    616000   299.26596     -0.93758544     25.815865      380.80822      0.99912569     9218399.8    
    617000   300.20436     -0.81616539     25.108059      381.33792      1.0208932      9211110.5    
    618000   299.74142     -1.3494209      25.20934       380.35535      0.98970678     9207651.5    
    619000   300.63377     -1.1262036      24.425637      380.85616      1.003507       9200772.1    
    620000   299.80957     -2.3266773      25.525772      379.77557      1.00022        9195368.2    
    621000   300.75039     -0.51802227     24.005749      381.18317      0.99050993     9197297.9    
    622000   298.24312     -0.56880076     27.28697       381.4316       0.96488065     9190790.6    
    623000   300.49462     -1.3825568      24.436012      380.44469      1.0361141      9187085.4    
    624000   300.99464     -2.4744199      23.952637      379.46414      0.99779783     9183605.5    
    625000   299.08998     -1.1172599      25.986586      380.58997      1.0141701      9182378.8    
    626000   299.8003      -0.87435962     25.347456      381.03854      0.99165069     9174828.9    
    627000   300.20979     -1.0015547      24.552706      380.60363      0.97818394     9169766.9    
    628000   301.04453     -0.74570229     23.759275      381.05885      0.99420346     9161291.2    
    629000   299.16521     -1.3074432      26.224863      380.72753      0.97004399     9154582.7    
    630000   299.31056     -0.91815159     25.640778      380.70561      0.99092277     9160999      
    631000   300.98702     -0.96209459     23.97553       380.99031      1.0212306      9159367.5    
    632000   301.03628     -0.54594865     23.73272       381.22222      1.0299194      9173068.7    
    633000   297.85149     -2.1671052      27.422285      379.50283      0.9741882      9190446      
    634000   300.67569     -1.4742085      24.22954       380.36192      1.0116078      9208403      
    635000   301.16369     -2.0655119      23.335551      379.45703      1.0284388      9221704.7    
    636000   299.73172     -1.0774782      24.939891      380.3463       1.0156254      9236074.4    
    637000   298.92225     -1.2794773      26.075236      380.31691      0.98146959     9249197.6    
    638000   300.50268     -2.9879749      24.344501      378.75734      0.98227052     9262694.1    
    639000   300.73901     -0.49712621     23.761497      380.94628      1.0272726      9260162.8    
    640000   298.75201     -0.60557867     25.953287      380.66638      1.0282609      9266740.8    
    641000   300.1885      -0.20246843     24.429045      381.25373      0.9736636      9265408      
    642000   300.95467     -0.31397109     23.323385      380.9478       0.9611468      9256463.8    
    643000   299.38761     -1.2703279      25.345512      380.1498       0.97227495     9247827.7    
    644000   299.67291     -0.30123213     24.966343      381.07905      0.98803061     9229975.7    
    645000   300.89834     -0.90431768     23.721077      380.68816      0.99518272     9216001.6    
    646000   299.41462     -1.3410966      25.139131      379.90478      0.97685492     9207039.7    
    647000   300.0175      -1.3602051      24.398952      379.86252      0.95949505     9196829.5    
    648000   300.08822     -0.64333786     24.315576      380.58012      0.97216051     9181443      
    649000   299.80041     -0.63545695     24.790231      380.72035      0.99925948     9156855.4    
    650000   300.02637     -0.52129214     24.461965      380.775        0.98298226     9138253.8    
    651000   300.33928     -0.14046768     24.048591      381.1146       0.97714809     9125741.5    
    652000   300.07846     -0.69739776     24.492924      380.6918       0.97780529     9111461.3    
    653000   299.29581     -1.8943645      24.982684      379.05376      0.95243661     9104421      
    654000   300.60109     -0.41036156     23.750161      380.85766      0.99775811     9096611.4    
    655000   299.85724     -1.2331235      24.497472      379.89753      1.0116795      9089307.8    
    656000   298.69421     -0.76598323     25.800402      380.28435      0.97938399     9083477      
    657000   300.89421     -1.2594961      23.216265      379.82325      0.99802038     9072918.3    
    658000   300.96688     -1.911027       23.058992      379.10088      1.0022438      9074482      
    659000   298.698       -2.1143949      25.9483        379.08834      0.97167057     9072387      
    660000   299.78038     -0.69529423     24.47419       380.32065      1.0543453      9077442.6    
    661000   300.44515     -2.1857683      23.604779      378.75141      1.016744       9078234.6    
    662000   299.37675      0.6125527      23.307843      379.98211      1.0948275      9082816      
    663000   298.63513     -0.57087344     25.669731      380.27852      0.97824108     9105743.4    
    664000   299.96254     -1.3393174      24.476116      379.8952       0.99903332     9119192.9    
    665000   301.44002     -0.21994691     22.460302      380.756        1.0356903      9127545.2    
    666000   298.72885     -0.44959202     25.89866       380.7402       0.99904809     9136429.9    
    667000   300.10401     -0.86018144     24.27916       380.34565      1.001121       9158226.2    
    668000   300.80577     -0.63197695     23.242564      380.37189      1.0080722      9164675.7    
    669000   300.69085     -1.0027708      23.469446      380.09129      1.0148317      9173657      
    670000   297.96615     -1.7027148      26.538862      379.22017      0.9871654      9183580.9    
    671000   302.36864     -1.5581561      21.380335      379.44227      1.027727       9191949.6    
    672000   298.09695      0.44954714     25.331936      380.32107      1.03652        9203367.6    
    673000   299.74019     -0.48164343     24.536451      380.54877      0.99849242     9213859.5    
    674000   300.89165     -1.0239218      23.315935      380.15545      1.0204575      9223750.8    
    675000   300.47632     -1.5999773      23.660584      379.43008      1.0039203      9240186.2    
    676000   298.35256     -0.75729842     26.037243      380.12354      0.98597214     9238857.2    
    677000   301.79698     -0.93378541     21.934597      379.941        1.024604       9237820.2    
    678000   300.21023     -0.63148138     23.983086      380.4046       0.97853885     9233852.4    
    679000   300.01734     -0.18536146     23.920608      380.55883      0.9565996      9228635.8    
    680000   299.13797     -0.1442217      24.957935      380.59142      0.9851809      9224734.4    
    681000   300.21443     -0.52194632     24.111296      380.64734      1.0373605      9225760.5    
    682000   300.87581     -0.4642792      22.877272      380.2576       1.0119097      9217655.6    
    683000   299.661       -0.96030804     24.47274       379.9122       0.98890167     9208441.3    
    684000   299.51201     -0.93718122     24.535768      379.82116      0.98014198     9204950.2    
    685000   301.06594     -0.80609048     22.54324       379.80788      0.98490432     9198684.4    
    686000   299.68857     -0.96932602     24.033461      379.4967       1.0134291      9190257.2    
    687000   299.128       -1.1995949      24.566833      379.13309      1.0203496      9185855      
    688000   301.05784     -1.6248671      22.510092      378.94632      0.96713277     9171110      
    689000   298.85207     -1.7675786      25.125073      378.79517      0.9749376      9168562.2    
    690000   300.48242     -0.67248122     22.959563      379.6638       1.0112622      9164661.5    
    691000   300.04212     -1.5056464      23.693427      379.04084      1.043854       9157277.9    
    692000   299.4086      -1.1247644      24.382673      379.3575       0.97256839     9155820.5    
    693000   299.64508     -0.92032705     24.112821      379.57333      0.9920771      9153068.1    
    694000   300.92569     -1.4562543      22.729346      379.17702      1.014483       9152431.2    
    695000   299.6687      -1.5369931      24.06715       378.93909      1.0017026      9161516.3    
    696000   299.61489     -1.8615732      24.236875      378.72024      0.97708089     9162069.8    
    697000   300.7319      -0.51808932     22.674687      379.83004      0.98743822     9170533.5    
    698000   299.89388     -1.0414954      23.845847      379.4811       0.99487453     9172274.6    
    699000   298.85611     -1.0732096      24.845973      379.21524      0.99326076     9171325.6    
    700000   300.85543     -2.08697        23.085859      378.81925      1.0185627      9173128.8    
    701000   300.1771      -1.5583883      22.987975      378.44319      1.0501531      9172431.6    
    702000   298.7314      -0.78368846     25.079038      379.58952      0.98775702     9174043      
    703000   301.11476     -0.45462236     22.258677      379.93285      1.0029079      9173733.1    
    704000   299.44553     -0.74265783     24.392112      379.79297      0.99160638     9171183.1    
    705000   300.74537     -0.36912933     22.688505      380.00884      0.99983228     9172306.4    
    706000   299.19574     -0.97224836     24.301844      379.17602      0.99460527     9170412.8    
    707000   299.53455     -0.29525673     24.281974      380.2361       1.0122231      9184181.7    
    708000   300.64881     -0.56604467     22.784726      379.7933       1.0448681      9190795      
    709000   299.62794     -0.27999228     24.049307      380.12978      0.99506458     9195019      
    710000   300.71506     -1.4009801      22.945338      379.19778      0.9905856      9199066      
    711000   299.45973     -1.0734384      24.049995      379.13695      1.0031131      9205913.3    
    712000   299.59024     -1.3463972      24.265236      379.23446      1.0036178      9207472.2    
    713000   301.27678     -0.47970118     22.080492      379.92229      1.008371       9213710.3    
    714000   299.33386     -1.2499487      23.944387      378.70513      0.99238812     9220292.9    
    715000   299.32476     -0.1787546      24.396895      380.21801      0.99098891     9218517.6    
    716000   300.56954     -1.2926728      23.245264      379.43293      1.0139274      9220357.9    
[...]
   1815000   302.28365     -1.4067574      25.767633      383.87989      0.95660004   
   1816000   298.98516     -1.6342255      29.933559      383.8953       0.36095533   
   1817000   302.10252     -1.8479178      26.414535      383.8702       0.28350512   
   1818000   302.33733     -2.6395078      26.935417      383.87876      0.96579271   
   1819000   299.3203      -1.6934695      29.596865      383.89796      1.8803075    
   1820000   301.66719     -1.108447       26.196293      383.87367      1.6866912    
   1821000   301.70621     -1.0466548      26.10083       383.88641      0.84579735   
   1822000   299.44634     -1.0323545      28.779699      383.89182      0.37729564   
   1823000   299.15656     -0.83593712     28.965339      383.92922      0.59381046   
   1824000   300.91216     -0.99490221     27.017651      383.91058      1.271629     
   1825000   302.82535     -1.4481827      25.170441      383.88554      1.3062084    
   1826000   299.5391      -2.4071867      30.05571       383.90332      0.79050512   
   1827000   300.52406     -0.85311245     27.308897      383.88204      0.90888494   
   1828000   301.89726     -1.5678081      26.378814      383.87046      0.96157329   
   1829000   301.30023     -2.4927743      28.028648      383.88526      1.08898      
   1830000   299.31891     -1.4752574      29.347106      383.86477      1.3847059    
   1831000   303.43227     -1.122196       24.091211      383.85412      1.2722802    
   1832000   300.75961     -2.2039931      28.384451      383.88685      0.50892414   
   1833000   298.99921     -2.4127402      30.698665      383.89861      0.10357696   
   1834000   302.85112     -1.7032701      25.398576      383.88923      0.59148927   
   1835000   301.36285     -0.54023043     26.020517      383.90415      1.8454226    
   1836000   297.88654     -0.36519253     30.013426      383.93757      2.3934048    
   1837000   301.72553     -1.0028188      26.022768      383.87516      1.1979172    
   1838000   301.75049     -1.1263768      26.11386       383.87239     -0.17808027   
   1839000   298.37843     -2.4024447      31.423859      383.89578     -0.28558373   
   1840000   302.35909     -2.0660178      26.32998       383.8727       0.85828843   
   1841000   301.16932     -1.1055949      26.7855        383.87359      2.2956329    
   1842000   301.5907      -1.0204543      26.22033       383.89473      2.1880684    
   1843000   299.23179     -0.28094987     28.298799      383.90715      0.85099567   
   1844000   298.46798     -0.6975139      29.620855      383.9042       0.11590289   
   1845000   302.8518      -1.8557231      25.525442      383.86446      0.17170818   
   1846000   300.72135     -1.267087       27.51421       383.90802      0.98151363   
   1847000   298.05112     -0.83641669     30.286986      383.93565      1.4615045    
   1848000   304.74371     -1.6069426      23.028079      383.866        1.1948112    
   1849000   299.71694     -1.9203293      29.364477      383.91045      1.03789      
   1850000   297.75854     -1.4897936      31.256919      383.90422      1.0510438    
   1851000   304.21976     -1.8134673      23.851124      383.85936      0.85233267   
   1852000   301.3649      -0.85127992     26.29203       383.86705      1.038916     
   1853000   298.69146     -1.7542396      30.426361      383.91878      1.2290072    
   1854000   299.84542     -0.92595922     28.228251      383.9214       0.98574396   
   1855000   303.42326     -1.5152783      24.517355      383.87647      0.63387502   
   1856000   301.70863     -2.7810214      27.832413      383.88651      0.48123011   
   1857000   299.14039     -1.680518       29.794346      383.89442      0.99003252   
   1858000   299.90794     -1.0011638      28.21767       383.90998      1.6785997    
   1859000   303.58152     -0.66597337     23.489215      383.88587      1.4432066    
   1860000   299.21721     -0.30989389     28.353945      383.91601      0.75211212   
   1861000   296.82847     -1.5384118      32.449041      383.94155      0.56584506   
   1862000   303.96252     -1.9814286      24.34851       383.88285      0.88855131   
   1863000   302.48225     -0.89110026     25.027314      383.89143      1.4127474    
   1864000   297.74518     -1.0328883      30.840651      383.92897      1.1983109    
   1865000   301.72918     -1.4634211      26.51656       383.9127       0.35579345   
   1866000   299.6436      -0.38239507     27.928623      383.92531      0.44214373   
   1867000   298.47472      0.41420117     28.528709      383.93179      1.4051979    
   1868000   302.53456     -1.4966344      25.595563      383.91635      2.0036311    
   1869000   300.78573     -1.9485678      28.106515      383.89541      1.7397996    
   1870000   301.28155     -2.2488976      27.803411      383.88168      0.61260436   
   1871000   300.34376     -1.0444243      27.73767       383.90506     -0.014601103  
   1872000   300.8574      -1.2461044      27.338098      383.9147       0.21298703   
   1873000   301.41796     -1.2394086      26.663142      383.91313      0.40994496   
   1874000   300.20459     -1.2496281      28.133021      383.92968      1.0693163    
   1875000   298.77824     -0.53306119     29.119734      383.93654      1.9929403    
   1876000   302.0593      -0.55461957     25.209106      383.90667      2.455716     
   1877000   300.3161      -1.6497811      28.401802      383.93093      1.8627105    
   1878000   301.05417     -1.0534299      26.903147      383.90645      0.48001393   
   1879000   299.52264     -0.30343113     27.980642      383.91243     -0.64445826   
   1880000   299.26817     -1.7970883      29.772285      383.90777     -0.09396759   
   1881000   303.77141     -1.7627888      24.354267      383.87994      1.1469201    
   1882000   300.1919      -1.743187       28.622537      383.91055      1.7178412    
   1883000   300.82983     -2.3012975      28.430507      383.91913      1.7694481    
   1884000   303.72538     -2.4860648      25.138929      383.88658      1.4081261    
   1885000   300.13929     -2.1594953      29.105586      383.91471      0.92654751   
   1886000   301.10331     -2.3531191      28.124664      383.88673      0.53151469   
   1887000   302.07286     -1.8469713      26.476502      383.89784      0.46352292   
   1888000   301.13828     -2.454465       28.235795      383.9381       1.0995264    
   1889000   301.51065     -1.6093852      26.911878      383.90213      1.3227976    
   1890000   301.52391     -1.5437889      26.820334      383.89195      0.74308199   
   1891000   299.85698     -2.2978807      29.554888      383.88987      0.78664915   
   1892000   302.98955     -2.401467       25.89583       383.85293      1.4331323    
   1893000   300.55749     -1.4475179      27.864965      383.88346      1.542625     
   1894000   300.91401     -1.7656696      27.804601      383.92896      1.1409643    
   1895000   300.76061     -0.3593051      26.570515      383.9188       0.64617144   
   1896000   299.02862     -0.52140096     28.812553      383.93881      0.57638635   
   1897000   301.45362     -1.306106       26.688123      383.91383      0.84030894   
   1898000   299.33726     -0.37007505     28.270615      383.91528      0.84801196   
   1899000   300.54046     -1.0533233      27.524214      383.91665      1.2150198    
   1900000   300.36786     -0.36877468     27.055542      383.92724      1.5664163    
   1901000   300.31009     -0.16576112     26.913733      383.91974      1.2354762    
   1902000   299.95879     -0.49571006     27.670449      383.92869      0.95196989   
   1903000   300.10404     -0.92749515     27.921653      383.92086      0.71168618   
   1904000   299.21725     -1.187759       29.226273      383.91052      0.38383158   
   1905000   302.67186     -1.2128198      25.109041      383.87694      0.75706156   
   1906000   299.18723      0.57425231     27.484485      383.89503      1.4147474    
   1907000   300.1631      -1.2253256      28.127213      383.89884      1.4121685    
   1908000   299.28826     -1.070685       29.014633      383.9004       1.0177512    
   1909000   301.78704     -1.2951191      26.245863      383.87911      0.65185007   
   1910000   301.74321     -1.7698445      26.766217      383.87261      1.0745851    
   1911000   300.58666     -1.2829219      27.689328      383.90711      1.3999545    
   1912000   297.16037      0.2848786      30.19672       383.90727      1.0019012    
   1913000   300.96315     -0.81712591     26.772934      383.90428      0.87418978   
   1914000   304.60216     -2.4962192      24.095485      383.87578      1.1346352    
   1915000   299.3262      -0.39663259     28.30131       383.90626      0.62915986   
   1916000   296.36537     -0.31939952     31.777795      383.93853      0.25397495   
   1917000   302.15261     -1.7070306      26.253934      383.91006      0.80523812   
   1918000   304.12462     -1.3063181      23.445459      383.84769      1.6416758    
   1919000   298.43481     -1.5082311      30.489665      383.92285      1.9861683    
   1920000   300.79491     -0.52501957     26.694487      383.91785      1.2545083    
   1921000   298.80239     -0.19123247     28.749333      383.9367       0.27680384   
   1922000   299.73153     -0.84938179     28.297513      383.93179      0.43861798   
   1923000   303.8982      -1.6505816      24.094096      383.88277      0.88513204   
   1924000   300.72706     -1.6932186      27.913236      383.8877       0.87398905   
   1925000   296.47565     -0.89572766     32.207575      383.92315      0.82565041   
   1926000   305.67495     -3.7165065      24.011122      383.84704      1.1228207    
   1927000   302.57853     -1.4809887      25.48234       383.87107      1.4314083    
   1928000   297.80268     -1.3253214      31.038432      383.90271      1.2679424    
   1929000   301.32504     -1.9147381      27.428983      383.89314      0.89492594   
   1930000   302.3296      -0.86783454     25.153094      383.85892      0.95823908   
   1931000   299.62038     -2.0853443      29.635873      383.90199      0.99430917   
   1932000   301.91082     -2.3127942      27.104092      383.86688      0.961089     
   1933000   303.31245     -2.8076465      25.929207      383.86416      0.88155812   
   1934000   300.76937     -2.8238449      28.992641      383.8868       0.54349291   
   1935000   301.17098     -2.1105338      27.809549      383.89467      0.36841156   
   1936000   302.23825     -3.3491308      27.780177      383.89605      0.81584011   
   1937000   302.08564     -2.0527439      26.656935      383.88769      1.668304     
   1938000   300.82913     -1.5497469      27.684449      383.92379      2.4465344    
   1939000   301.1758      -1.8979538      27.604532      383.90798      1.9970044    
   1940000   303.25466     -3.53672        26.733886      383.87104      0.35929202   
   1941000   300.56565     -1.0143173      27.426168      383.88756     -0.59171785   
   1942000   299.1406      -1.1133762      29.253727      383.9212      -0.37234156   
   1943000   300.83015     -0.94302246     27.057869      383.90514      0.67742035   
   1944000   301.81927     -1.5898248      26.536079      383.91296      2.1836566    
   1945000   298.86402     -0.44518077     28.939526      383.94624      2.4960515    
   1946000   302.29318     -0.52698576     24.898815      383.90217      1.6239312    
   1947000   301.23961     -2.1748567      27.7956        383.89803      0.613093     
   1948000   297.4331      -1.4665712      31.628635      383.9121       0.067565469  
   1949000   303.08737     -1.0725173      24.463661      383.86605      0.57015259   
   1950000   301.71633     -0.21962907     25.283818      383.90846      1.0650187    
   1951000   297.26832     -1.1854726      31.574209      383.94279      0.73610735   
   1952000   301.37144     -0.73519762     26.223328      383.92221      1.0486776    
   1953000   301.28781     -0.44456616     26.024982      383.91503      1.5631738    
   1954000   299.14948     -0.79028725     28.912256      383.91338      1.2094672    
   1955000   300.88903     -1.2939005      27.348201      383.91462      1.0790604    
   1956000   300.43083     -1.7164449      28.297309      383.89623      1.2982558    
   1957000   302.17693     -1.6035233      26.084299      383.87286      1.3526048    
   1958000   301.28656     -0.96440431     26.511424      383.88014      1.1015591    
   1959000   297.78904     -1.0422638      30.764813      383.89592      0.34788751   
   1960000   302.45417     -1.5353877      25.684567      383.871        0.21541867   
   1961000   301.92454     -1.3057986      26.107176      383.89328      0.84536021   
   1962000   299.0157      -1.4266214      29.726235      383.93191      1.1266801    
   1963000   301.35485     -1.8976892      27.398324      383.91498      1.3270292    
   1964000   301.31301     -1.8154352      27.358108      383.90726      1.8151097    
   1965000   302.03528     -0.8901799      25.559533      383.89297      1.8545732    
   1966000   300.30736     -1.7218733      28.466931      383.91357      1.4040011    
   1967000   299.33387     -0.60136603     28.498227      383.90757      0.58244035   
   1968000   300.51371     -0.71447955     27.208267      383.90773     -0.17637152   
   1969000   300.8925      -0.83187655     26.851005      383.88358      0.048054725  
   1970000   302.50466     -2.325764       26.410193      383.86629      0.92901431   
   1971000   298.48548     -1.4060843      30.34235       383.93794      1.7535984    
   1972000   301.14468     -1.0486218      26.786466      383.90223      2.2868465    
   1973000   303.40602     -1.8914334      24.927092      383.88955      1.885207     
   1974000   300.01808     -1.1116634      28.16253       383.87534      0.9033021    
   1975000   300.18222     -2.3882257      29.261963      383.89343      0.27587914   
   1976000   301.03407     -2.1586328      28.001281      383.87547      0.15607899   
   1977000   302.50168     -2.1387493      26.244239      383.8838       0.42778023   
   1978000   301.97899     -1.0650941      25.79833       383.88989      0.86770197   
   1979000   297.49208     -0.81434629     30.944709      383.95055      1.6906864    
   1980000   301.36844     -1.2018838      26.692342      383.92097      2.7021224    
   1981000   301.54902     -0.37094867     25.615693      383.89002      2.1061997    
   1982000   301.97044     -2.3170982      27.056019      383.88542      0.18862948   
   1983000   299.17578     -0.5998921      28.692299      383.91509     -0.74717195   
   1984000   298.83793     -0.75775276     29.265222      383.92834     -0.22198192   
   1985000   300.67534     -0.99281506     27.289212      383.90257      1.2225145    
   1986000   302.73783     -1.3998944      25.217653      383.87694      2.4827907    
   1987000   300.81402     -1.1516986      27.27921       383.89862      2.3826655    
   1988000   300.06944     -1.4641795      28.485031      383.9064       1.3453486    
   1989000   299.15398     -0.63387591     28.759925      383.9228       0.38214548   
   1990000   301.21435     -1.1063168      26.763845      383.90477      0.13996013   
   1991000   301.95102     -1.1610226      25.937361      383.89973      0.92882875   
   1992000   299.14858     -0.83156447     28.958095      383.91686      1.2583528    
   1993000   299.75109     -0.79496119     28.218575      383.93054      0.95674481   
   1994000   301.30074     -0.13438303     25.701907      383.91752      1.0909985    
   1995000   300.22756     -1.069619       27.902528      383.90652      1.3701543    
   1996000   299.87819     -0.89713569     28.130741      383.8917       1.2011959    
   1997000   302.93541     -2.7414974      26.31691       383.86959      1.2460556    
   1998000   299.87132     -2.492958       29.719228      383.87619      1.1852958    
   1999000   302.84323     -2.5231392      26.192487      383.85389      1.1877502    
   2000000   302.65823     -1.319561       25.228433      383.87339      0.81286971   
   2001000   299.01711     -2.2656728      30.557116      383.92541      0.077174445  
   2002000   300.44028     -1.0452685      27.611359      383.8927       0.45329515   
   2003000   300.74599     -0.45705267     26.677274      383.91043      1.5782852    
   2004000   300.24186     -0.43162439     27.25579       383.91479      1.9010333    
   2005000   301.95212     -1.099486       25.882611      383.90783      1.5509174    
   2006000   298.45232     -0.61867849     29.55439       383.89795      0.94150164   
   2007000   299.43663     -0.72736996     28.497377      383.90293      0.69838394   
   2008000   301.80874     -1.4640125      26.369292      383.85946      0.94804225   
   2009000   302.92478     -1.9076214      25.499839      383.87375      0.91078645   
   2010000   300.10624     -2.2135521      29.193488      383.90926      0.74822724   
   2011000   299.8765      -1.291961       28.551565      383.91568      1.1665367    
   2012000   302.12533     -1.8863142      26.446368      383.89076      1.220452     
   2013000   301.26743     -1.0211799      26.587603      383.87679      1.0753722    
   2014000   300.68869     -1.1483083      27.434212      383.90795      1.2999782    
   2015000   299.55669     -1.1130731      28.737396      383.90004      1.246938     
   2016000   300.37599     -1.3989679      28.037539      383.88872      0.90255043   
   2017000   301.33535     -0.4021214      25.899099      383.88813      0.76997532   
   2018000   300.88118     -0.38182433     26.434053      383.90322      1.0800078    
   2019000   299.48231     -1.6668813      29.360517      383.88089      1.4529038    
   2020000   301.34678     -1.7571506      27.228321      383.87591      0.94640707   
   2021000   300.48044     -1.6949775      28.199762      383.87916      0.38659024   
   2022000   301.39614     -1.1584743      26.580236      383.88522      1.0778888    
   2023000   301.19835     -0.40234764     26.089487      383.91535      1.8173791    
   2024000   299.25712     -1.5827015      29.580997      383.91772      1.6569511    
   2025000   301.74229     -2.5996022      27.606082      383.88162      1.0096411    
   2026000   300.88455     -0.64074632     26.683349      383.8976       0.26149708   
   2027000   301.88516     -0.58110062     25.440954      383.90492      0.5161788    
   2028000   298.43278     -0.8846993      29.885489      383.93979      1.0926606    
   2028821   303.00143     -1.3383256      24.824444      383.85881      1.4755823    
Loop time of 11.7181 on 1 procs for 1000000 steps with 400 atoms

Performance: 7373.235 ns/day, 0.003 hours/ns, 85338.370 timesteps/s, 34.135 Matom-step/s
94.5% CPU use with 1 MPI tasks x no OpenMP threads

MPI task timing breakdown:
Section |  min time  |  avg time  |  max time  |%varavg| %total
---------------------------------------------------------------
Pair    | 1.6761     | 1.6761     | 1.6761     |   0.0 | 14.30
Bond    | 2.2936     | 2.2936     | 2.2936     |   0.0 | 19.57
Neigh   | 1.5897     | 1.5897     | 1.5897     |   0.0 | 13.57
Comm    | 1.0854     | 1.0854     | 1.0854     |   0.0 |  9.26
Output  | 0.394      | 0.394      | 0.394      |   0.0 |  3.36
Modify  | 3.3028     | 3.3028     | 3.3028     |   0.0 | 28.19
Other   |            | 1.376      |            |       | 11.75

Nlocal:            400 ave         400 max         400 min
Histogram: 1 0 0 0 0 0 0 0 0 0
Nghost:            170 ave         170 max         170 min
Histogram: 1 0 0 0 0 0 0 0 0 0
Neighs:             93 ave          93 max          93 min
Histogram: 1 0 0 0 0 0 0 0 0 0

Total # of neighbors = 93
Ave neighs/atom = 0.2325
Ave special neighs/atom = 1
Neighbor list builds = 15337
Dangerous builds = 0
unfix 7a

Total wall time: 0:00:42
