ITEM: TIMESTEP
22206000
ITEM: NUMBER OF ATOMS
1000
ITEM: BOX BOUNDS pp pp pp
-1.5013665325000085e+02 1.9422665324999969e+02
-1.5032790550000411e+02 1.9396790549999454e+02
-1.4998790550000496e+02 1.9430790549999574e+02
ITEM: ATOMS id xu yu zu
1 -24723 -3155.77 3582.88
2 -3620.78 -7657.5 5987.67
3 -3581.78 -1117.36 16991.8
4 6108.05 7857.47 -5020.62
5 8273.43 -9043.2 -1087.53
6 -5779.09 4256.91 8644.42
7 348.844 -6345.02 -2334.05
8 -4151 1620.96 -3352
9 -2376.3 4272.46 890.311
10 5129.53 -7402.9 -1025.76
11 1734.27 -9328.96 -4952.57
12 -5571.68 3904.56 -4733.8
13 -6619.25 -23171.9 -11537.9
14 6719.06 4531.1 -5790.31
15 -4870.65 -330.187 7543.53
16 3108.37 4608.39 2146.32
17 4387.16 6984.05 172.35
18 -11567.3 -13469.4 -2562.65
19 -6648.78 -15109.5 -451.04
20 4197.28 -7270.58 3663.67
21 10916.1 -9610.66 12928.1
22 -95.7058 -677.11 -2683.22
23 -10707.3 16781.1 -1984.63
24 -3466.88 5579.97 11498.6
25 2256.66 13299.8 9054.76
26 -11340.8 -10110.3 -16732.5
27 4275.62 -7466.28 8687.19
28 -14429.9 3577.38 -7312.57
29 -12676.8 5579.37 520.819
30 -159.282 9958.31 -13807.4
31 5289.46 2370.2 -14211.2
32 -4641.64 12948 -2375.01
33 10880.1 -708.704 2382.12
34 -2000.93 -132.131 3153.36
35 -6096.91 -17093.6 -5191.78
36 4690.92 -16435.9 -25782.3
37 -5395.96 -564.719 1898.77
38 -1863.45 11863.5 13883.2
39 -476.281 2232.87 9575.24
40 12011 1762.6 1709.54
41 -5665.29 -11605.9 -1181.45
42 -2569.18 -4553.95 -5338.06
43 12781.6 3955.43 8003.15
44 10015.5 -6283.86 -2239.26
45 -8994.73 5659.6 17704.7
46 13174.1 4015.74 5410.83
47 -1111.49 14122.3 -2179.8
48 5969.86 11667.1 -2850.18
49 3598.88 -5982.44 12911.8
50 -5241.66 4506.75 11927.1
51 -2007.11 -8974.6 -5705.43
52 -5404.07 13124.6 -3711.45
53 -14609.1 -9899.37 1705.45
54 9836.9 -13725.5 -3225.87
55 -6387.59 8293.68 -9815.86
56 -20586.9 19520.3 5266.57
57 -59.5497 5603.18 4354.84
58 19766.7 -5522.3 -11353.6
59 3053.06 3445.84 8882.7
60 2140.67 -6745.86 7695.39
61 -10430.1 18487 4851.56
62 3325.38 -22180.5 -10617.2
63 10466.9 -4976.22 10682
64 -808.952 5486.7 -1322.25
65 2771.59 -7296.89 -3866.06
66 12878.1 -1206.5 12299
67 -4075.43 17193 -418.019
68 -5546.21 -13860.8 4807.43
69 -5544.22 11679.2 -7991.2
70 17106.5 1056.48 -7939.57
71 -4585.59 3811.15 3772.89
72 10201.4 8407.31 14045.6
73 2172.4 -10310.3 12680.8
74 -8237.73 -19439.8 3885.59
75 -1000.38 1800.64 13820.5
76 -2897.85 -7320.23 -1897.06
77 -4202.44 -6676.6 1403.3
78 -12354.3 4392.7 -4632.82
79 16193.1 -9587.6 -12847.8
80 -12605.2 4845.37 -11594.6
81 6297.03 -508.248 885.735
82 2627.85 1144.29 13260.2
83 -3759.11 618.56 -792.288
84 4526.09 498.509 -22770.1
85 2614.7 10238.8 -3389.8
86 -10291.8 3517.48 -13369.5
87 673.009 4550.44 -154.006
88 4555.04 2718.94 -1301.57
89 3191.05 -14044.2 -3134.76
90 1079.04 -8966.74 -3161.96
91 -6978.51 -16598.6 -334.902
92 10759.2 -12515.5 -992.32
93 12026.9 660.774 -6573.97
94 -14012.5 -5408.68 -492.786
95 7938.69 2681.24 -1832.25
96 4318.74 -3464.34 -6943.05
97 -24558.4 -82.8764 -1491.69
98 15222.4 -13636.9 346.36
99 15631.6 5489.18 5575.62
100 -6440.42 19225.3 -10303.3
101 -5511.99 1378.92 -6311.12
102 -2052.02 -6849.61 -13888.1
103 2000.02 -562.92 -17177.2
104 10932.6 8053.92 3994.28
105 3506.29 1855.1 7390.28
106 3563.31 -13010.8 -8776.23
107 -678.306 761.466 -1988.34
108 -9186.44 68.19 1060.36
109 7335.15 4219.19 -2117.51
110 12231.1 11729.1 -1039.76
111 -765.627 1787.58 -10489.6
112 6664.93 -3928.82 2590.18
113 10589.1 -6246.7 -17390.9
114 -8261.01 15911.5 18938.1
115 -14550.6 419.172 -509.241
116 -4344.84 129.855 -11551.5
117 -5583.17 -18153.2 -804.838
118 -10356.8 -3026.24 -2024.4
119 13534.9 -4131.18 9961.68
120 6020.62 -3998.1 -4172.28
121 10348.9 -13703.7 8078.06
122 -11201.2 -421.368 543.407
123 -17114.2 2148.8 17269.8
124 -2638.67 -9550.69 4058.6
125 13767.3 1936.28 16509.3
126 -7053.67 13697.5 6516.66
127 -911.116 12354.9 -4335.73
128 -6270.58 5847.28 -5466.16
129 5508.48 -8009.79 -1764.13
130 9563.24 -1176.45 3604.39
131 5044.34 -2945.9 7182.17
132 -6611.39 14144 5660.93
133 -9531.29 -9546.41 -18809.6
134 -16734.4 7454.18 138.626
135 -6577.55 -4730.83 3380.38
136 -7537.3 4278.18 19788.7
137 5263.52 -14071.6 -8312.71
138 -879.579 -661.666 3938.77
139 5188.75 -2542.12 -9219.17
140 791.794 10670.4 3010.71
141 -8254.47 12561.8 2200.17
142 8775.93 -6425.09 -4375.96
143 -13513.7 20427.4 3650.15
144 -8485.96 -4161.83 -7867.19
145 3234.67 -8828.24 9000.07
146 -3966.99 -12266 1132.08
147 -8322.89 -11441.4 2285.23
148 9487.65 -8876.61 258.462
149 10650.4 -1740.03 -2843.7
150 14218.7 7707.52 -2332.03
151 -4686.86 3700.32 -1347.51
152 -2197.48 2590.9 1156.5
153 14895.4 -3389.29 -3493.06
154 -8548.22 -6781.1 -7283.09
155 15286.1 -3337.55 -822.372
156 -7159.7 -16127 -18834.9
157 9886.12 320.779 12249.7
158 7805.03 -16151.3 -17568
159 -11856.7 5423.56 -13068
160 -10555.6 6913.85 6272.74
161 -9336.18 -5752.7 19101.7
162 -12430.2 11872.3 2.91343
163 -1818.29 6267.63 -13127.2
164 6742.16 1610.22 -5909.59
165 -5995.71 3769.99 -6749.21
166 -4697.62 -1739.76 -7887.58
167 -25652.4 2124.13 8067.72
168 -10436.2 -13332.4 5250.55
169 4160.75 -4540.83 -9576.49
170 9936.22 -11817.6 -8631.27
171 5775.71 4340.25 6205.9
172 9761.59 9603.55 24024.6
173 3544.31 21626.3 -616.973
174 -7337.25 -3061.08 2134.66
175 -10434.8 -437.267 -14060.7
176 1693.61 955.134 -10170.6
177 7220.17 5774.82 -21766.7
178 13930.7 3702.36 9161.92
179 -8824.1 -9721.46 10870.1
180 11453.7 7666.01 -12182.9
181 -6349.5 -4151.31 5959.55
182 -6917.24 -16766.9 -3247.56
183 9365.25 -262.619 20240.3
184 4401.16 -8393.45 -5914.5
185 -11708.2 3828.26 14093.6
186 -4326.72 -2916.94 16720.4
187 -1274.62 -2574.92 -932.176
188 -9099.21 -6123.83 2778.51
189 -25119.1 -347.44 504.565
190 -727.281 12254.7 -7356.38
191 -6758.8 15.9056 -1801.78
192 2868.49 -2030.37 3071.48
193 2300.25 -3998.69 68.9837
194 -4050.78 -1748.69 4913.37
195 8902.12 6956.34 13124.8
196 4335.9 -14060.5 6839.12
197 3306.62 21441.7 7798.85
198 -1495 -7820.15 1894.17
199 4153.13 -468.777 -16075.8
200 -882.955 18442 2783.6
201 -6005.54 -6888.12 -12796.7
202 1290.71 8226.53 12012.5
203 8783.14 -30207.4 -10279.6
204 -156.857 -99.5976 434.367
205 6673.07 13102.4 4293.99
206 -523.813 1414.16 3215.95
207 14243.2 3271.5 -359.669
208 -21021.2 1838.66 2430.4
209 14888.9 -7627.4 6053.83
210 13131.7 -4507.37 -5689.85
211 3295.25 -9128.06 -6415.41
212 -4271.99 7339.37 -6437.09
213 2627.46 7512.34 -13876
214 1801.71 -6634.57 840.992
215 2485.45 -6890.9 8683.26
216 4638.34 -4861.33 -11194
217 5034.07 -5165.72 4883.17
218 -11411.5 -4436 -8897.87
219 6252.53 8062.29 -3064.04
220 -6621.51 3216.56 -3177.24
221 -8592.43 -11260.1 -2856.12
222 -725.732 -1948.05 -13090
223 -5966.91 -4440.55 -2293.6
224 18337.4 -17531.6 4246.85
225 4092.18 -13859.5 548.851
226 -7144.39 10107.5 5566.57
227 -8804.92 10362.4 12718.5
228 817.905 833.887 -8960.89
229 -7961.75 -8802.04 10235.9
230 -3730.47 -5160.77 -14150.4
231 15057.2 8284 8287.11
232 -3122.41 6813.59 -2329.47
233 -718.187 -3963.25 12579.6
234 -1432.84 -11770.7 7494.32
235 -3575.91 10615.1 -1621.08
236 26160 5722.01 1970.52
237 3064.88 10956.4 -2269.04
238 -1099.62 -11697.3 -9714.48
239 8858.65 14973.1 -11940
240 -11808 12077.9 2982.59
241 4125.79 5783.85 601.097
242 -8351.69 11029.1 -12204.5
243 1349.13 5468.17 -10461.5
244 -5711.85 -11881.1 -3976.86
245 1324.93 -20690.4 -3664.24
246 -21139.5 7022.94 -10857.6
247 -4164.5 13198.7 -2785.51
248 -9742.76 -8128.03 -10531.6
249 -2254.57 -2650.39 -11294.1
250 25332.8 -9493.85 7233.32
251 -12828.5 3456 8204.69
252 15447.1 8991.87 -19687.2
253 -366.469 3119.4 5192.68
254 6494.63 4489.92 -2703.24
255 -932.762 -8988.72 -5898.64
256 266.842 -2066.25 18561.5
257 12821 10021.9 9879.6
258 -2934.49 -5229.93 7618.38
259 -9098.03 -5470.43 -11233.2
260 5383.44 -3772.36 -874.582
261 7544.81 -3760.77 -7167.85
262 3041.55 -4698.01 -6899.71
263 2817.35 -4075.92 4526.08
264 5494.93 5445.94 -10135.4
265 2678.36 8680.42 4350.46
266 -2860.58 18802.7 860.534
267 19717.8 -2126.17 3177.28
268 8567.65 -6373.89 480.72
269 -16542.1 11920.7 10773.9
270 6917.07 8382.13 -4811.56
271 414.552 -16361.5 -2229.81
272 5109.94 -163.836 4689.07
273 -2680.92 10110.4 15095.3
274 -6073.87 7534.81 -4809.88
275 -4718.9 6551.52 8488.5
276 -14789.3 -9559.82 7201.1
277 -12885.9 3114.63 3753.52
278 -14247.4 2231.62 2244.43
279 -8028.36 15210.9 -2056.97
280 795.644 2400.79 -13211.4
281 -4286.97 12062.7 25060.4
282 -11372.3 -19299.8 -13.0783
283 1065.52 -9928.69 13009.4
284 6326.69 -5420.14 -12141.5
285 -4485.7 7084.56 4304.94
286 -22872.7 508.482 9688.48
287 -1051.97 1521.74 1586.88
288 11448.3 2859.87 8478.35
289 -11344.2 -1971.12 3341.37
290 3952.16 -4927.7 15490.7
291 5845.42 -2112.29 21793.8
292 -1229.17 -12248.8 -7885.43
293 3739.35 2782.91 12657.8
294 -9879.65 -2642.72 -2464.21
295 10192.4 -5340.51 4698.52
296 6319.87 -19182.9 -95.033
297 21405.3 -8299.53 -1287.12
298 -6796.94 5775.51 -8046.17
299 -18298.3 18263.9 5314.13
300 9566.73 -137.751 12875.4
301 -10199.7 -3796.53 8896.32
302 9328.08 8652.05 -9596.56
303 1778.63 6220.38 8115.24
304 -3306.87 596.778 6069.19
305 2987.24 -2871.25 5807.12
306 -11888.2 -11395.7 -985.434
307 10534.8 6436.05 9890.6
308 469.971 -4379.98 -532.387
309 5764.7 600.847 -17071.4
310 -7009.47 6422.26 -8733.68
311 9530.39 -2345.59 4712.81
312 20339.4 -2320.61 -2747.57
313 -2181.35 6896.4 -12423.6
314 -5286.1 16509.9 -1648.75
315 -4930.19 12473.3 -6374.37
316 -10055.7 -14024.8 10220.5
317 -14174 -712.632 14678.1
318 5510.81 -5837.35 -8163.74
319 -1975.05 6510.17 -22707.4
320 -7429.7 9140.05 -5908.04
321 -9196.09 14130.9 2792.36
322 2198.63 -4465.8 -4633.84
323 -7386.43 -7233.06 -6873.12
324 -10953.4 -6365.02 6993.72
325 5454.31 -1608.3 -6248.58
326 7396.6 -18793 12272.1
327 -2353.08 8968.11 6981.64
328 9001.28 9299.81 4455.29
329 4588.51 -2139.42 17555.9
330 -2953.26 5607.82 18969.9
331 7636.27 3309.15 -7495.61
332 6656.2 -4213.54 1413.69
333 6185.75 7131.88 11339.7
334 14746.1 -4134.17 -9213.37
335 -9592.52 -3101.37 -1717.63
336 9270.73 19501.1 -1797.12
337 -7452.2 -2156.3 9911.91
338 11431.4 -18592.2 8274.11
339 -6190.01 4907.03 12527.2
340 -3849.45 506.752 26257.7
341 -12538.3 -3947.23 -2431.81
342 7028.1 -6599.11 3485.22
343 8980.07 -19643.2 -350.924
344 5322.94 -370.579 -8676.18
345 -10222.4 -4794.02 -279.469
346 -19118.8 -5272.23 7679.83
347 -17421.2 8969.46 4543.16
348 -4383.37 781.923 2157.75
349 3570.08 1621.41 6492.64
350 10723.6 -5369.2 -5646.87
351 -105.661 -6225.85 14574.1
352 9378.83 6788.64 -8731.94
353 -8466.54 -9121.57 -7025.54
354 -2104.4 3047.38 -3307.64
355 -1634.38 -7835.43 -643.883
356 -5103.99 4382.66 5553.61
357 21018.8 -9872.55 4236.88
358 2711.18 2595.98 -8434.48
359 17896.2 9945.44 15062
360 3930.57 637.121 10766.4
361 7001.24 -8101.8 -1579.09
362 2489.17 17178.8 -12154.2
363 7799.54 6243.56 7740.58
364 -1645.43 -8934.75 12098.7
365 9881.18 7716.32 14828.2
366 5312.43 -10308.5 -9725.44
367 2966.62 10640.8 6131.13
368 -5601.7 -18423.6 -6777.89
369 9273.37 -6932.11 8606.96
370 -5751.59 12793.2 -1580.36
371 13940.9 13297 2764.83
372 -11658.8 -9924.38 9387.88
373 -18462.7 1040.2 8359.06
374 11901.3 -1651.56 -11068.4
375 5390.69 -4237.84 10792
376 6014.68 -610.681 4591.91
377 -4574.86 -381.926 -17845
378 -6438.56 -5850.62 197.955
379 -4885.86 -335.003 -12979.1
380 -11335.9 3777.14 -11711.8
381 -641.922 8101.11 -22020
382 11601.3 8478.83 11824.7
383 13280.2 264.279 3551.99
384 1939.64 -1682.22 -10611.4
385 2670.21 12541.8 164.81
386 -18189.7 -2724.04 -6965.38
387 14869.6 -8818.01 -6730.92
388 1181.69 -9998.38 9579.36
389 -6644.41 2377.69 -7318.15
390 3029.15 370.911 -3904.26
391 -7173.75 4266.35 7994.41
392 -9300.08 7517.48 -1600.88
393 11884.4 -4776.73 14421.7
394 3684.21 4060.56 -3158.85
395 -6080.47 21439.5 8054.79
396 421.755 -8413.56 -2701.85
397 14678.4 7479.29 -1546.08
398 -370.326 -6732.73 2348.59
399 2162.85 -3789.06 -12966.9
400 -3633.06 9009.1 -3456.21
401 -4911.45 8946.7 13457.1
402 -701.51 4040.89 -15218.4
403 2054.44 8651.31 -1949.41
404 -1149.92 1141.04 -16629.5
405 10215.7 -14253.2 -0.456059
406 -6453.11 6984.71 11279.5
407 -6133.89 13879 1673.19
408 216.435 6163.68 11779.4
409 3449.09 -1830.12 165.938
410 6276.69 809.848 -10277.5
411 -2751.93 -957.936 -3222.19
412 14807.8 -3883.1 -14209.4
413 -3996.56 -32.7299 -9975.41
414 -27388 -1952.12 133.012
415 3142.16 -14140.9 -3490.69
416 16742.2 20044.3 -958.055
417 -2535.27 -16701.3 -852.496
418 11239.1 3407.28 -7933.18
419 20259.6 -508.865 -5539.32
420 267.31 2315.62 -4024.36
421 19959.3 17288.7 1506.42
422 4420.41 4885.27 -6526.57
423 2428.02 -8839.47 -6536.99
424 -6392.59 -1773.64 26096.2
425 3997.66 1518.48 2825.87
426 -5471.29 3460.29 -6424.91
427 716.11 -9712.38 -5340.07
428 3704.66 -10769.7 -4392.87
429 4529.93 -13749.6 -3953.08
430 12925.8 -11323.2 10311.1
431 -3127.98 -5762.09 5291.52
432 3444.8 4084.11 6060.86
433 -9585.62 2919.81 -3546.15
434 -10947.9 461.827 2533.83
435 -2079.4 -1718.61 1240.71
436 14957.5 -4007.85 15901.7
437 2170.15 7633.48 -2292.73
438 229.424 4389.99 4086.88
439 5636.02 -5329.74 -19570.4
440 -11377.5 -3373.91 4607.68
441 5046.53 922.491 25150.7
442 -3423.39 -6156.73 -14683.8
443 19626.8 5500.58 14815
444 -15252.9 -757.045 -8834.4
445 8964.34 2462.19 16246.2
446 15548.6 7535.81 5830.94
447 -4497.48 2339.79 5018.07
448 -3461.27 7107.11 24242.8
449 -3645.86 -2613.07 -4672.76
450 8593.21 4860.21 -2596.76
451 20136.5 -9901.01 -8238.58
452 4089.07 2712.87 -450.137
453 -1449.6 16.8495 -110.178
454 -14347.4 -3967.62 14543.5
455 890.999 15256.9 1396.46
456 2072.01 -5910.52 2419.05
457 5074.18 316.635 14400.1
458 2176.69 -4784.8 -8653.97
459 -7464.65 1819.9 108.781
460 219.045 -947.274 8699.46
461 -8828.1 -47.8294 -21969.3
462 -8725.28 -7065.27 10800.1
463 11377 -15759.5 -6563.56
464 9124.97 12854.6 4921.4
465 14740.9 19733.1 10314.1
466 -10056.7 -7168.18 7478.6
467 4532.71 -9272.06 -2209.42
468 -4516.05 -3399.77 6501.96
469 3683.76 11014 -4916.18
470 2159.01 -4333.97 -393.228
471 9249.08 6044.61 8542.65
472 10672.7 -1203.85 -5791.95
473 -1642.07 2166.66 -2777.79
474 2049.85 15184.2 5272.72
475 3785.98 718.685 -8977.54
476 -12332.9 -107.638 -12377
477 10995.8 -3958.5 -2219.27
478 -12829.1 2602.71 -20399.5
479 -1333.37 10102.2 -8230.05
480 13126.2 2812.79 3333.17
481 -9464.06 7399.97 -2628.08
482 1875.31 17945.4 4755.12
483 -1352.88 5413.16 -11228.8
484 11449.2 -4306.6 11036.5
485 -3279.76 -3951.2 1763.28
486 5346.98 13783 900.343
487 -16314.4 -1032.15 15678.4
488 5325.2 10719.6 1722.25
489 -2050.49 3862.44 7439.93
490 -7906.26 1506.88 -9440.26
491 9510.28 7554.95 2874.23
492 938.507 -2746.95 -4411.82
493 7136.74 5070.25 9182.19
494 4230.25 5947.63 -18197.8
495 -9470.51 4092.91 3350.27
496 10070 -8430.41 1493.22
497 319.514 923.833 10188.9
498 11523.8 -3008.7 11535.6
499 11296.6 -5725.66 626.224
500 -18207.4 2075.79 -2347.28
501 -14365.9 -9293.25 9083.89
502 -8079.82 3952.68 5783.99
503 13576.9 -16323.6 10053.8
504 -11555 3248.33 -4483.66
505 -6778.27 5078.4 2916.81
506 429.768 -115.045 -11497.9
507 6260.67 7379.32 7071.8
508 15299.7 212.701 2151.84
509 4062.51 8435.06 -9472.26
510 519.502 -10777.2 5079.01
511 -7598.57 5734.57 2698.47
512 4729.08 3104.66 -15877.3
513 -2699.12 -6938.93 4752.09
514 -11124.7 13282.8 4203.75
515 -14156.5 11470 4604.2
516 4761.56 9052.42 134.08
517 7284.31 -4984.83 5151.23
518 10989.5 -808.335 9039.51
519 6538.59 2328.42 8889.7
520 7944.36 18486.5 -10179.5
521 -394.807 9491.72 2260.74
522 -3616.61 -2823.34 7553.27
523 -113.92 18132 685.436
524 843.488 -1387.79 -14376
525 -11688.1 13247.5 1570.65
526 -16061.3 -730.302 157.262
527 2427.19 -9813.26 -107.992
528 16588.9 -605.731 19606
529 -17846 8466.12 1789.72
530 -495.284 736.234 -10353.3
531 -1758.32 -15507 -1568.72
532 6029.66 773.946 -17154.2
533 21442.4 6878.87 -3547.69
534 -4721.25 -3177.2 -1562.34
535 2745.93 -2630.68 5382.62
536 -288.661 -8561 7184.86
537 4811.5 -12669.8 -6470.5
538 4948.06 8498.64 -10872.9
539 -9783.11 -2520.34 7155.98
540 -18254.8 6999.26 -1451.35
541 -12206.9 -11951.1 -4409.73
542 13544.8 -613.825 1801.51
543 4336.49 8507.89 -7257.27
544 5551.97 2480.97 -12463.4
545 -3961.15 -5894.39 7830.67
546 -6008.24 -6900.83 -8904.33
547 5089.34 5111.35 -15926.1
548 11021.5 -1261.69 -2699.34
549 4884.63 -8927.1 2114.27
550 16915.9 17411.2 5293.72
551 5729.6 -15718.2 -9055.28
552 -6424.62 -20183.4 13080.2
553 -11872.4 -7688.93 -9376.47
554 -10119.2 3164.67 -5140.6
555 6449.9 -4624.3 7876.39
556 17318.3 2630.66 20.9054
557 -8177.22 10490.8 -4951.38
558 -10793.8 -3463.12 -6995.33
559 9692.11 -19020.1 -13862.9
560 -12740.6 -5098.09 3607.54
561 -2024.17 14244.6 -14866.9
562 -10053.5 2365.94 -3324.84
563 -6567.59 -9674.98 8749.7
564 8523.91 5296.22 -374.112
565 11318 13907.9 -6641.07
566 -195.505 9586.43 -2580.88
567 6209.91 -2467.76 4333.98
568 -12136.2 11461 -4064.55
569 -88.9157 14937 3393.33
570 2014.05 1187.69 -3648.71
571 3022.66 20970.5 6721
572 2748.51 -3735.37 -2091.26
573 3437.5 1852.47 -14413.5
574 3064.05 21709.4 -593.348
575 960.781 1588.72 -6006.08
576 1509.92 -15634.9 -17792.4
577 9236.96 16766.2 -3135.16
578 -2664.93 -9962.67 -10801.1
579 4050.02 130.811 -13828.6
580 -2344.92 -3631.83 -320.838
581 5959.42 -9509.16 313.498
582 -2927.05 -14450 -8526.49
583 -1222.59 -1811.76 -9688.6
584 -3245.84 -4316.31 -5791.05
585 11074.3 -872.501 2751.28
586 11307.1 2846.76 -7404.11
587 6627.26 -14205.8 -2707.82
588 4712.37 5985.92 3164.34
589 -4735.83 11408 -11800.4
590 -3417.32 13499.1 -3816.49
591 6151.06 -1574.74 14780.8
592 -10632.4 9109.81 -8947.52
593 13573.3 4038.14 2484.96
594 -5303.26 8526.04 1381.01
595 -2988.58 -4073.26 5095.56
596 3458.33 -12784.9 5517.37
597 -3402.31 15340.6 3343.18
598 -6327.43 7601.34 2369.81
599 -7224.63 -12128.2 -3324.6
600 6470.65 1421.71 -4508.59
601 888.203 -16701.3 8833.78
602 -2702.76 -8226.44 3041.11
603 2617.57 4973.27 958.298
604 4911.05 1950.27 -3093.72
605 -5398.69 10315.7 8188.36
606 1174.6 1875.56 2336.85
607 619.168 12928.4 4351
608 11421.1 6554.84 15152.1
609 -7194.53 16972.5 5217.22
610 7036.42 -15354 3452.14
611 -2210.24 -16295.1 -28597.6
612 -5990.75 -10688.5 -3204.63
613 -9625.1 -6995.68 -3730
614 -17672.5 -3264.74 14614.9
615 -8426 -5444.69 6585.27
616 -3402.06 -15331.3 8912.78
617 -1980.17 2518.3 2915.14
618 4663.24 19378.6 -2601.03
619 -8971.64 -16457 7957.4
620 15111.2 -9669.08 8636.78
621 -518.561 -5982.43 634.926
622 2238.76 -5463.45 -1928.11
623 6163.32 11781.6 15004.7
624 1479.32 10522.6 -9056.48
625 6577.38 3607.06 -4928.7
626 20820.6 5297.43 10192.3
627 -14312 2976.13 7299.28
628 -5619.33 -8043.42 -4407.35
629 9743.79 7441.96 2933.98
630 2154.7 -9616.61 -7085.92
631 625.073 -6126.45 9182.51
632 -3101.92 -10528.5 277.305
633 -1340.92 10486.7 22617.4
634 -5238.07 1942.69 1269.62
635 -2311.14 20683.9 -4035.71
636 2780.58 15471.3 -3970.91
637 5009.12 -6935.93 3242.7
638 -18672.1 10050 6978.6
639 -10650.2 -3828.3 -4424.22
640 7556.02 -12004.1 -3152.87
641 2236.98 -7351.62 5863.4
642 3945.82 7423.19 11989
643 13030.6 299.865 -2242.69
644 4315.92 -3571.21 -24.6633
645 -11941.3 -78.9495 7907.6
646 1416.38 3428.92 8837.44
647 -6658.87 13800.6 -3196.35
648 -17101.3 -5997.9 -7174.27
649 6472.82 615.91 -2848.37
650 9059.49 -1428.48 -5452.02
651 -6690.6 -9480.88 3406.83
652 -1314.48 -12529.1 -6702.57
653 -2402.13 6713.19 4975.72
654 -5767.39 20386 3587.19
655 11925.2 8846.86 4670.97
656 10299.1 9663.5 34.6589
657 19940.1 -13058.5 -4732.97
658 9229.46 5309.36 52.9687
659 -1229.69 13433.7 -16811.1
660 -9508.29 -8645.13 -3567.37
661 -1280.17 -3213.06 -35328.9
662 -10263.8 4039.15 -4463.02
663 1248.4 -8147.01 -4917.43
664 5983.39 -5677.37 -15003.4
665 232.251 -10803.4 -9298.76
666 14946.4 -6455.92 -5113.86
667 -9733.07 -10822.1 -4945.27
668 -9449.72 -9735.32 9561.45
669 -6273.12 -6175.81 -2838.11
670 8507.61 4228.4 -1127.03
671 14484.2 3285.98 1639.19
672 -3054.64 -136.101 -784.04
673 12588.2 -11804.7 -8077.06
674 -8351.6 5268.89 -1162.14
675 -6936.17 -1769.98 1824.42
676 -15315 -7385.88 15322.8
677 6624.48 2976.85 -3482.58
678 6576.21 6871.38 10969.6
679 5487.39 -26280.9 1474.59
680 12915 -6976.87 -5700.04
681 2235.71 -3416.86 -7947.21
682 9389.88 17672.5 6851.89
683 -1299.24 -9653.44 9927.49
684 -6589.2 -4869.19 2468.09
685 -5297.65 4460.79 -2682.36
686 15695.9 -8926.56 14154
687 9237.63 5204.25 -6502.61
688 -2199.92 -6701.15 -11309.3
689 10840.2 13401.1 18620.6
690 -13194 1457.54 5993.36
691 2307.84 -18588.9 -5845.62
692 -4724.79 -8260.39 -4004.87
693 5856.91 7296.19 -9488.64
694 906.583 -12710.7 -12054.7
695 7403.76 -4484.63 7377.34
696 12820.9 -2452.52 -19481
697 5208.18 -7120.57 3036.32
698 6945.22 -9308.17 2692.35
699 213.138 -11221.3 10277.9
700 -15654 12825.1 6097.21
701 -7122.2 -6675.41 5906.64
702 -1846.8 15413.4 7212.63
703 619.245 -2756.9 -1547.15
704 -4921.84 -14380.3 -5346.03
705 -55.399 -115.507 -7181.57
706 -2066.04 5702.62 -6569.09
707 8456.14 -7670.62 1576.4
708 6922.54 4284.06 -10337.3
709 -1751.47 2162.84 3835.8
710 -5331.54 6766.24 -2296.12
711 11000.2 -2107.9 -838.379
712 -9939.46 5739.88 -758.751
713 -4081.32 3029.19 -3340.57
714 -17767.8 8014.87 5769.66
715 490.382 -14059.7 10433.2
716 1606 -103.188 6750.74
717 1874.33 -8239.57 221.606
718 332.71 -286.965 14245.5
719 18234.4 8633.05 3911.37
720 4760.92 -3779.19 -5989.7
721 -6691.63 -14551.9 15743.7
722 -3808.76 -1024.38 5510.14
723 16689 4846.19 -1572.54
724 6841.68 4299.65 5690
725 -5614.27 26858.6 -3262.49
726 3064.43 9930.93 -4458.6
727 -5548.38 1082.77 -4579.23
728 9718.23 16007.8 959.656
729 4206.76 4689.9 -11576.5
730 10231.2 1305.89 -8059.49
731 1213.9 1860.89 -200.898
732 1349.11 53.8055 -4606.71
733 -5803.41 8795.71 8779.71
734 -5762.9 -15550.4 -9971.07
735 -17806.8 -5255.6 -5309.57
736 -8177.73 -671.855 -1652.25
737 -6762.72 -18228.7 -7117.75
738 9764.86 962.991 8641.27
739 -5905.6 -1589.31 2702.83
740 -2958.48 -2035.08 5546.66
741 -0.800329 7043.54 6366.88
742 -2228.82 -13546 5525.45
743 10097.8 1933.54 3713.21
744 5583.16 3660.15 -459.389
745 -8413.66 1136.39 12824.9
746 10077.5 3763.91 5465.97
747 -330.885 -1890.76 2197.61
748 11590.7 495.856 6718.52
749 5521.94 7092.08 12658.6
750 -7272.91 16645.3 4946.94
751 3263.97 -4082.07 1128.28
752 -282.131 -1589.86 7515.94
753 -9817.16 -4403.09 2225.5
754 17617.8 -2667.57 -9748.42
755 6217.06 7759.83 3438.7
756 -3502.91 -6388.34 -5532.07
757 -1214.14 3923.97 -1608.81
758 -4387.65 -5922.82 -6134.66
759 852.272 -1455.57 -2166.37
760 7847.51 -3269.45 12489.2
761 -23979.7 15311.3 586.738
762 -12973.1 -5766.47 930.047
763 5158.55 -10144 -2668.53
764 1500.43 9763.75 6505.86
765 -21550.2 3260.77 10079.2
766 -12816.6 5680.87 2905.6
767 17398.4 9347.4 -3459.59
768 1945.54 9461.06 -7654.33
769 -9781.06 -20306 -3765.08
770 5629.14 -338.875 -7256.37
771 12337.7 14525.8 -10149.7
772 -15422.9 -12687.7 4215.65
773 -13143.5 1243.1 -8739.91
774 -7371.15 6930.88 -5973.3
775 -2002.52 -7386.56 972.973
776 -14362.3 -1776.71 -3718.17
777 310.868 1823.62 -9035.81
778 -4865.59 21326.2 5291.82
779 -2722.07 -11380 -433.962
780 5176.73 2620.53 5053.65
781 2568.69 -2325.03 -3415.4
782 10097.2 9403.97 11193.3
783 -4381.2 8649.34 2978.2
784 2049.35 16728.8 -9034.68
785 11067.9 -5315.9 3116.65
786 -9513.61 6098.05 -15992
787 -4728.79 -4065.33 7216.28
788 -16748.8 2709.56 -12469.7
789 1230.65 -3506.48 -4728.05
790 15506.2 3922.73 -2193.51
791 -5746.99 7191.26 4839.83
792 -2124.68 -1218.55 6826.91
793 8419.96 3519.21 3580.34
794 -166.433 -4804.67 12377
795 -11956.9 -4654.32 -6405.61
796 -7637.55 -653.961 -2234.86
797 7184.53 -20493.6 -280.469
798 -7518.59 -8172.68 -6791.27
799 13130.9 -4665.98 -4591.93
800 4441.39 7144.98 -1950.93
801 -7263.61 4600.23 9835.04
802 -7016.83 -4130.92 484.571
803 -3989.46 -2348.27 -6310.38
804 -2106.47 6454.79 3713.16
805 13652.5 7688.48 -1973.76
806 885.079 4149.15 916.112
807 -1058.12 1444.76 5304.69
808 3263.35 -15108.4 10721.6
809 21846.1 -8393.69 7250.37
810 -15982.5 20013.5 -13456.6
811 -1237.88 -11578.3 6451.59
812 7604.58 16183.7 -7178.3
813 3650.73 -7004.97 -976.659
814 -5434.6 7520.78 4054.21
815 -781.071 929.118 -25519.7
816 -12455.5 12054.7 3074.87
817 -2855.76 2.04137 -11787.3
818 -11320.7 -4590.58 11697.2
819 2977.07 5035.29 -13487.3
820 -244.992 -382.025 3745.01
821 2080.33 -5303.13 10531.4
822 -13177.9 22096.9 -17287.5
823 -7660.02 1203.13 2770.44
824 7843.67 -12474.7 -6846.09
825 1667.42 4808.15 -1270.51
826 5721.79 -425.167 321.358
827 -3265.1 18180.9 -4300.63
828 -555.749 42.6048 4409
829 3590.45 -4956.69 6425.67
830 10746 8784.84 -14365.5
831 -8777.55 -12988.4 -13583.8
832 -14921.1 -11138 18090.1
833 6647.95 -13382.4 -14131.4
834 208.249 -11674.1 -3145.33
835 1381.14 -6417.89 16702.4
836 -4695.27 -15630.1 -13319.2
837 -14701.2 105.594 -2286.01
838 -1402.37 -19346.8 -4817.64
839 4209.73 6547.6 4896.67
840 -2615.34 12184.1 -7055.86
841 5327.67 -3391.12 4793.68
842 -4464.14 -3808.1 -3013.97
843 -11803 13430.8 8116.85
844 -8480.24 11255.9 5528.16
845 -6348.55 1248.63 -1882.05
846 -7917.77 -1988.92 441.122
847 10543.7 4806.66 -13622.2
848 -13397.9 -11807 -17651
849 -9108.63 6551.13 -13793.2
850 -3435.12 11340.7 -19136.4
851 -5276.9 592.86 -7411.24
852 8379.45 10694.4 -7545.77
853 -21171.1 9358.07 2246.27
854 6099.76 -4872.91 -14837.9
855 4165.75 2644.84 3341.87
856 -15538.2 8691.97 12345.5
857 -3815.5 -7643.55 -4235.6
858 8128.33 847.696 7484.3
859 -14272.2 -1463.26 5532.29
860 -7845.58 -1417.87 1728.66
861 787.022 -16913.9 1100.76
862 1064 -7387.32 5011.51
863 9338.09 2398.74 -1895.74
864 -4839.04 -3606.89 -2792.94
865 -2419.8 7496.13 7909.6
866 1124.47 6545.87 6422.35
867 12285.2 -5961.68 12947.6
868 -6685.74 12209 -1584.33
869 -2247.93 -5223.32 -7039.76
870 5038.07 -4236.48 8725.6
871 -6905.35 447.474 -1698.4
872 -13632.7 -7240.47 4089.98
873 -17111.2 -107.814 852.661
874 -12151.6 -10785.9 18824
875 -10243.3 -20445.1 -1130.85
876 10869.4 2774.54 3375
877 -10577.9 -14553.9 -1611.17
878 -5390.45 -13679.4 -2548.11
879 2747 -11751.1 543.107
880 -16050.5 11957.7 17806.5
881 -9411.37 -19688.6 10379.2
882 -1902.25 13730 -6226.3
883 -633.956 -4207.73 -6308.41
884 509.892 -733.955 -601.302
885 2199.5 -1924.59 12426.7
886 2622.1 -9741.58 -12187.3
887 -1509.49 11289.6 -11541.5
888 3954.58 689.649 -3615.65
889 5205.47 6190.78 -15510.5
890 2812.46 -17361.3 7376.27
891 1949.92 7503.46 24846.7
892 2935.39 -275.739 2469.96
893 7514.18 -15630.5 -1060.93
894 1180.97 -818.448 -1422.94
895 -1775.98 -9798.97 4347.57
896 -1939.87 -2658.59 -1086.37
897 -4100.85 4945.6 -1323.41
898 -10146.9 -7636.17 -6783.91
899 1081.66 -5747.95 -4581.15
900 10277.3 664.709 -7635.62
901 -1431.42 4463.34 8119.06
902 2661.34 19104.3 -7958.92
903 10466 -21466.2 -4621.9
904 1149.12 -5128.38 -3619.3
905 -11764.3 626.678 658.053
906 6142.28 -1545.91 -8758.37
907 3441.44 -1864.81 -4153.64
908 5913.36 16325.8 -2107.17
909 -7961.11 -5697.84 -3075.93
910 912.619 -5839.27 -2684.35
911 18736.7 -5687.31 5552.73
912 -5915.65 3460.94 -5039.94
913 6677.37 -12997.3 -4552.99
914 1999.66 -7054.2 29486.7
915 7639.97 -12801.8 -6961.94
916 -12583.5 5698.45 1113.17
917 260.328 15787.2 -2999.5
918 5839.91 8126.57 18220.8
919 4572.11 7642.02 -8549.82
920 -1093.38 11070.3 -1231.95
921 -3651.93 -5640.28 2301.64
922 -159.943 6513.48 -2191.29
923 -1094.08 -3904.13 15658.2
924 1850.63 31133 -13279.4
925 -13351 -8824.28 18601.8
926 -967.363 -7824.45 3284.58
927 10373.3 1223.78 10178.3
928 2165.07 1694.7 4343.11
929 5430.17 9263.06 7548.88
930 -6891.1 -3128.77 -2937.26
931 -3217.11 -4582.91 -9738.81
932 -6838.39 7176.59 -8699.29
933 9588.51 13827.6 19550
934 2297.15 3841.14 -2911.18
935 19311 2212.27 7440.46
936 -7231.1 -11053.1 2925.41
937 12111.6 -2648.34 19634.1
938 5592.3 4239.8 9892.04
939 -7507.58 -11305 3593.86
940 3275.43 10715.8 12494.1
941 17136.2 -8674.14 2420.9
942 -9376.95 -3678.19 -6862.64
943 1526.93 2875.37 -1431.46
944 7014.78 -9252.59 -5782.29
945 -10474.3 8029.91 -8670.38
946 3862.41 -18377.3 -1962.5
947 6182.41 6297.38 -12738.5
948 -3374.22 7177.18 -4080.92
949 -5646.85 5662.36 3214.3
950 -2814.44 -8418.6 98.8582
951 -10498.1 -2481.34 -10220
952 -8421.75 17483.7 33.2581
953 -20370.3 -11201.8 -5770.29
954 3237.95 -1249.51 -13922.2
955 -1903.25 2323.83 6262.24
956 497.415 -8354.2 -1965.94
957 -5160.57 -3433.17 6197.43
958 -16118.7 5561.34 21400.9
959 7355.78 -5304.19 576.924
960 2279.83 -1222.29 5779.92
961 -15279.8 -8937.91 3620.36
962 -5699.19 -2176.96 5678.7
963 -1681.63 4534.49 444.296
964 -8016.95 -11578.8 8206.94
965 2880.55 7984.77 3210.24
966 3851.14 5350.73 1415.08
967 -550.212 -9705.88 -12337.1
968 -576.95 9015.56 15608.6
969 7741.39 27767.6 11914.5
970 5470.12 19857.5 1081.96
971 7811.21 11120.4 -21737.4
972 -7316.99 -3432.47 3734.43
973 12945.2 -4186.27 -8858.2
974 -13564.2 8944.11 7776.12
975 8709.84 10783.9 -19604.2
976 17445.9 9422.92 -834.417
977 15805.1 7295.56 7241.17
978 -19547.7 -15482.3 -2071.86
979 -3893.23 412.186 3925.51
980 -5532.93 -3506.97 -1900.48
981 3288.5 3644.16 3200.48
982 12947 5893.8 -7745.87
983 6726.21 -8766.46 -3561.11
984 249.533 -3784.43 -17911.5
985 -12819.4 -656.914 10821.7
986 11243.7 5232.68 -400.866
987 16396.5 3770.44 1410.43
988 -7650.89 187.691 -8238
989 4154.31 -3469.07 -209.418
990 -6891.89 -417.978 -22518.9
991 5217.79 -292.427 873.034
992 -14035.8 7443.78 -4942.29
993 -9429.47 -4792.02 4105.41
994 -3772.92 6803.43 -7184.04
995 8858.12 -14327.7 -2834.95
996 3832.19 6195.75 -19743.9
997 28318.3 5820.55 22264.1
998 -5161.16 7248.33 -7788.42
999 -6621.94 -17643.9 9181.48
1000 1551.98 -1564.9 -696.026
ITEM: TIMESTEP
22207000
ITEM: NUMBER OF ATOMS
1000
ITEM: BOX BOUNDS pp pp pp
-1.5013665325000085e+02 1.9422665324999969e+02
-1.5032790550000411e+02 1.9396790549999454e+02
-1.4998790550000496e+02 1.9430790549999574e+02
ITEM: ATOMS id xu yu zu
1 -24722.4 -3157.75 3582.24
2 -3621.42 -7653.55 5987.35
3 -3582.24 -1119.04 16989
4 6105.79 7854.25 -5019.76
5 8273.3 -9042.51 -1086.95
6 -5776.6 4257.22 8643.74
7 343.877 -6339 -2335.38
8 -4150.52 1617.72 -3352.84
9 -2375.62 4268.26 891.029
10 5130.78 -7397.91 -1028.86
11 1732.68 -9329.93 -4953.91
12 -5573.88 3903.96 -4734.28
13 -6619.16 -23172 -11539
14 6720.25 4532.29 -5789.97
15 -4868.42 -332.967 7543.67
16 3108.77 4610.6 2146.06
17 4384.6 6982.4 175.474
18 -11570.4 -13470.6 -2568.47
19 -6650.14 -15109.6 -457.099