LAMMPS Description # full

1000 atoms
0 bonds
0 angles
0 dihedrals
0 impropers

1 atom types
0 bond types
0 angle types
0 dihedral types
0 improper types

-3.46 47.55 xlo xhi
-3.68 47.32 ylo yhi
-3.34 47.66 zlo zhi

Masses

1 39.948 # Argon Atom Ar 211 #

Pair Coeffs

1 0.2340 3.4010

Atoms

1 1 1 0.0000 41.830 29.743 13.623
2 2 1 0.0000 37.265 13.566 2.352
3 3 1 0.0000 45.752 -0.140 31.003
4 4 1 0.0000 1.257 25.938 45.471
5 5 1 0.0000 33.870 0.603 21.622
6 6 1 0.0000 32.408 25.356 18.859
7 7 1 0.0000 10.669 10.978 17.701
8 8 1 0.0000 20.370 25.269 3.934
9 9 1 0.0000 2.057 0.934 38.319
10 10 1 0.0000 33.649 32.596 32.894
11 11 1 0.0000 6.192 32.703 37.160
12 12 1 0.0000 21.776 9.016 20.486
13 13 1 0.0000 2.860 17.638 5.164
14 14 1 0.0000 41.971 6.239 41.291
15 15 1 0.0000 20.980 44.932 45.235
16 16 1 0.0000 22.888 26.057 35.226
17 17 1 0.0000 19.463 9.645 42.047
18 18 1 0.0000 26.940 36.334 5.991
19 19 1 0.0000 43.825 2.661 6.510
20 20 1 0.0000 44.589 14.394 26.521
21 21 1 0.0000 3.426 42.053 20.896
22 22 1 0.0000 12.238 0.769 11.858
23 23 1 0.0000 5.506 37.085 2.916
24 24 1 0.0000 19.064 37.635 18.992
25 25 1 0.0000 30.272 13.700 38.946
26 26 1 0.0000 19.535 42.949 29.527
27 27 1 0.0000 39.673 41.207 -0.593
28 28 1 0.0000 5.569 34.945 4.886
29 29 1 0.0000 7.527 25.276 10.192
30 30 1 0.0000 11.310 4.358 32.583
31 31 1 0.0000 12.405 17.543 44.701
32 32 1 0.0000 7.794 32.550 38.051
33 33 1 0.0000 49.622 29.829 15.616
34 34 1 0.0000 -4.506 16.447 21.976
35 35 1 0.0000 31.790 43.355 14.469
36 36 1 0.0000 2.600 18.350 26.828
37 37 1 0.0000 15.313 29.824 18.308
38 38 1 0.0000 32.263 20.568 16.489
39 39 1 0.0000 35.560 32.499 31.967
40 40 1 0.0000 29.416 18.596 38.138
41 41 1 0.0000 0.838 37.446 24.050
42 42 1 0.0000 16.224 38.162 -1.483
43 43 1 0.0000 5.024 45.163 44.390
44 44 1 0.0000 34.579 35.762 -0.027
45 45 1 0.0000 45.820 3.934 7.539
46 46 1 0.0000 44.002 29.761 16.817
47 47 1 0.0000 15.580 46.671 26.220
48 48 1 0.0000 36.932 21.899 47.136
49 49 1 0.0000 45.584 23.269 27.136
50 50 1 0.0000 18.848 2.768 7.424
51 51 1 0.0000 16.440 10.269 20.113
52 52 1 0.0000 23.926 45.580 48.540
53 53 1 0.0000 16.655 8.349 46.445
54 54 1 0.0000 41.514 30.912 29.944
55 55 1 0.0000 14.252 23.043 3.426
56 56 1 0.0000 40.627 41.059 44.527
57 57 1 0.0000 6.662 37.437 0.465
58 58 1 0.0000 41.899 2.634 23.822
59 59 1 0.0000 2.635 8.901 -3.435
60 60 1 0.0000 -0.186 21.539 -6.311
61 61 1 0.0000 20.864 18.740 29.927
62 62 1 0.0000 44.142 20.057 -3.572
63 63 1 0.0000 33.405 42.449 12.459
64 64 1 0.0000 -4.676 17.336 -1.360
65 65 1 0.0000 0.365 12.475 9.725
66 66 1 0.0000 33.022 16.155 8.022
67 67 1 0.0000 5.315 48.021 13.772
68 68 1 0.0000 36.897 10.701 36.612
69 69 1 0.0000 -6.292 18.301 -1.494
70 70 1 0.0000 35.587 41.369 24.390
71 71 1 0.0000 27.386 28.841 39.312
72 72 1 0.0000 16.711 11.042 22.114
73 73 1 0.0000 26.949 2.527 35.652
74 74 1 0.0000 45.528 39.852 39.596
75 75 1 0.0000 17.030 34.056 14.723
76 76 1 0.0000 37.695 5.478 36.501
77 77 1 0.0000 20.276 3.615 14.097
78 78 1 0.0000 47.220 23.326 -1.932
79 79 1 0.0000 9.828 17.650 5.363
80 80 1 0.0000 -2.964 17.655 30.093
81 81 1 0.0000 24.180 -0.052 3.417
82 82 1 0.0000 37.342 19.026 17.187
83 83 1 0.0000 7.353 36.182 5.033
84 84 1 0.0000 2.467 22.564 21.283
85 85 1 0.0000 43.726 -2.215 -2.560
86 86 1 0.0000 37.984 35.333 30.988
87 87 1 0.0000 27.133 38.754 7.963
88 88 1 0.0000 0.482 17.996 -1.829
89 89 1 0.0000 -1.010 43.798 34.591
90 90 1 0.0000 20.674 40.508 28.773
91 91 1 0.0000 45.660 18.765 47.099
92 92 1 0.0000 -8.535 1.382 4.529
93 93 1 0.0000 1.195 6.847 31.072
94 94 1 0.0000 14.375 44.632 28.877
95 95 1 0.0000 32.998 39.998 41.258
96 96 1 0.0000 46.306 6.608 6.221
97 97 1 0.0000 45.382 -1.759 1.515
98 98 1 0.0000 23.497 25.328 7.121
99 99 1 0.0000 4.665 27.716 38.060
100 100 1 0.0000 34.080 43.624 19.448
101 101 1 0.0000 7.233 47.229 7.183
102 102 1 0.0000 17.870 24.765 27.478
103 103 1 0.0000 40.881 27.458 4.548
104 104 1 0.0000 34.210 12.763 23.268
105 105 1 0.0000 10.377 9.414 44.555
106 106 1 0.0000 29.172 1.774 3.694
107 107 1 0.0000 46.151 34.441 9.643
108 108 1 0.0000 28.868 47.582 17.682
109 109 1 0.0000 -2.837 16.808 22.688
110 110 1 0.0000 33.768 5.620 39.444
111 111 1 0.0000 35.634 14.017 10.251
112 112 1 0.0000 35.028 30.049 35.785
113 113 1 0.0000 6.444 33.240 16.303
114 114 1 0.0000 7.415 24.558 41.122
115 115 1 0.0000 -4.214 45.162 34.538
116 116 1 0.0000 42.179 43.212 45.457
117 117 1 0.0000 20.756 22.752 30.162
118 118 1 0.0000 37.026 9.931 38.220
119 119 1 0.0000 12.370 11.671 43.152
120 120 1 0.0000 8.570 -0.702 15.998
121 121 1 0.0000 18.846 18.188 -3.524
122 122 1 0.0000 6.067 12.553 21.473
123 123 1 0.0000 40.303 21.342 6.560
124 124 1 0.0000 45.828 17.322 20.606
125 125 1 0.0000 0.535 42.061 37.651
126 126 1 0.0000 8.844 33.619 45.860
127 127 1 0.0000 35.965 28.593 25.192
128 128 1 0.0000 21.058 30.846 43.909
129 129 1 0.0000 20.534 25.644 2.123
130 130 1 0.0000 -2.029 20.372 23.589
131 131 1 0.0000 21.836 3.353 15.556
132 132 1 0.0000 -6.135 10.451 29.491
133 133 1 0.0000 -3.903 43.856 16.937
134 134 1 0.0000 0.429 24.722 20.739
135 135 1 0.0000 19.991 17.894 -0.573
136 136 1 0.0000 35.537 41.791 26.525
137 137 1 0.0000 10.865 25.128 14.571
138 138 1 0.0000 42.523 26.878 4.161
139 139 1 0.0000 44.568 40.055 10.934
140 140 1 0.0000 18.574 33.332 8.384
141 141 1 0.0000 37.373 42.957 22.938
142 142 1 0.0000 -5.928 12.274 27.881
143 143 1 0.0000 -5.379 4.379 -0.772
144 144 1 0.0000 9.118 35.428 39.692
145 145 1 0.0000 -0.108 4.053 -1.193
146 146 1 0.0000 31.980 0.672 -0.008
147 147 1 0.0000 18.093 47.660 35.015
148 148 1 0.0000 35.334 7.376 40.187
149 149 1 0.0000 22.721 14.730 26.021
150 150 1 0.0000 9.659 40.851 2.409
151 151 1 0.0000 12.629 33.082 44.136
152 152 1 0.0000 0.746 14.247 29.641
153 153 1 0.0000 15.276 33.183 23.130
154 154 1 0.0000 21.164 34.137 7.491
155 155 1 0.0000 29.904 9.662 9.619
156 156 1 0.0000 47.839 11.070 9.855
157 157 1 0.0000 47.475 46.947 34.000
158 158 1 0.0000 3.899 3.130 23.924
159 159 1 0.0000 24.832 21.162 41.209
160 160 1 0.0000 33.014 30.619 34.518
161 161 1 0.0000 29.403 15.561 16.901
162 162 1 0.0000 15.031 50.965 29.785
163 163 1 0.0000 13.500 46.946 29.537
164 164 1 0.0000 -2.509 15.240 26.422
165 165 1 0.0000 24.099 35.011 35.491
166 166 1 0.0000 11.790 42.919 2.999
167 167 1 0.0000 5.115 0.748 38.303
168 168 1 0.0000 46.761 14.292 45.411
169 169 1 0.0000 -1.512 3.048 0.154
170 170 1 0.0000 19.603 39.582 41.810
171 171 1 0.0000 14.762 0.407 27.730
172 172 1 0.0000 -0.605 -0.817 -0.762
173 173 1 0.0000 12.122 9.637 42.700
174 174 1 0.0000 1.443 24.664 15.536
175 175 1 0.0000 8.221 2.237 40.384
176 176 1 0.0000 18.135 34.069 6.758
177 177 1 0.0000 24.864 42.331 39.047
178 178 1 0.0000 35.700 43.519 15.847
179 179 1 0.0000 22.232 36.016 10.555
180 180 1 0.0000 38.459 4.575 14.008
181 181 1 0.0000 41.588 29.236 24.107
182 182 1 0.0000 39.630 9.257 41.422
183 183 1 0.0000 6.001 44.545 11.482
184 184 1 0.0000 22.251 10.862 32.718
185 185 1 0.0000 17.126 7.358 7.956
186 186 1 0.0000 31.063 49.599 24.202
187 187 1 0.0000 23.790 48.136 -2.871
188 188 1 0.0000 0.317 17.837 35.548
189 189 1 0.0000 35.355 36.981 44.438
190 190 1 0.0000 39.188 6.846 14.178
191 191 1 0.0000 36.565 37.577 43.281
192 192 1 0.0000 37.146 24.295 45.690
193 193 1 0.0000 4.399 9.387 21.798
194 194 1 0.0000 25.195 10.471 -0.910
195 195 1 0.0000 32.341 -0.908 3.221
196 196 1 0.0000 21.702 25.074 8.561
197 197 1 0.0000 39.393 47.017 26.647
198 198 1 0.0000 -2.119 34.495 23.002
199 199 1 0.0000 12.963 8.113 44.778
200 200 1 0.0000 41.767 21.440 47.038
201 201 1 0.0000 23.137 28.663 39.258
202 202 1 0.0000 13.558 9.450 47.757
203 203 1 0.0000 15.245 15.997 27.081
204 204 1 0.0000 30.392 44.786 18.549
205 205 1 0.0000 2.016 21.740 10.458
206 206 1 0.0000 -1.646 7.228 25.628
207 207 1 0.0000 27.137 29.373 2.376
208 208 1 0.0000 46.768 28.939 0.708
209 209 1 0.0000 26.843 17.505 8.669
210 210 1 0.0000 10.265 32.076 13.065
211 211 1 0.0000 2.301 19.800 32.633
212 212 1 0.0000 42.830 27.941 1.921
213 213 1 0.0000 46.791 25.026 18.124
214 214 1 0.0000 27.854 7.594 28.761
215 215 1 0.0000 24.516 15.715 12.083
216 216 1 0.0000 -0.697 6.168 -3.453
217 217 1 0.0000 1.915 35.153 33.133
218 218 1 0.0000 47.526 27.489 -1.064
219 219 1 0.0000 7.882 32.619 26.110
220 220 1 0.0000 40.112 -2.936 28.625
221 221 1 0.0000 49.633 39.255 8.088
222 222 1 0.0000 44.245 31.280 2.113
223 223 1 0.0000 44.364 39.080 15.746
224 224 1 0.0000 29.401 6.949 32.661
225 225 1 0.0000 30.536 45.251 21.505
226 226 1 0.0000 -2.099 1.466 2.473
227 227 1 0.0000 41.401 -1.840 22.684
228 228 1 0.0000 33.864 24.517 22.809
229 229 1 0.0000 25.974 20.448 37.302
230 230 1 0.0000 3.447 3.328 42.791
231 231 1 0.0000 -2.601 6.544 0.733
232 232 1 0.0000 -2.301 45.929 44.681
233 233 1 0.0000 11.162 36.387 47.030
234 234 1 0.0000 29.428 3.437 34.421
235 235 1 0.0000 2.475 19.307 34.340
236 236 1 0.0000 32.879 15.151 17.995
237 237 1 0.0000 25.266 42.303 -5.168
238 238 1 0.0000 17.264 3.630 8.114
239 239 1 0.0000 25.139 50.804 -3.968
240 240 1 0.0000 -3.165 44.304 42.340
241 241 1 0.0000 20.713 16.794 45.418
242 242 1 0.0000 40.145 9.727 10.610
243 243 1 0.0000 -0.527 41.911 13.107
244 244 1 0.0000 2.171 33.061 19.159
245 245 1 0.0000 9.515 -1.044 30.773
246 246 1 0.0000 39.334 44.976 -0.326
247 247 1 0.0000 10.409 32.682 20.275
248 248 1 0.0000 27.662 22.415 42.293
249 249 1 0.0000 38.415 10.813 42.980
250 250 1 0.0000 24.796 15.348 10.229
251 251 1 0.0000 37.470 25.159 29.983
252 252 1 0.0000 3.623 6.695 44.608
253 253 1 0.0000 1.676 44.711 45.521
254 254 1 0.0000 7.844 25.526 38.060
255 255 1 0.0000 16.527 42.928 1.480
256 256 1 0.0000 0.330 13.549 6.327
257 257 1 0.0000 25.855 45.199 44.927
258 258 1 0.0000 18.154 33.319 23.814
259 259 1 0.0000 47.604 38.729 38.367
260 260 1 0.0000 7.644 18.313 0.346
261 261 1 0.0000 -1.957 33.336 25.974
262 262 1 0.0000 40.815 47.480 -0.525
263 263 1 0.0000 -1.923 44.969 15.385
264 264 1 0.0000 18.449 41.610 30.850
265 265 1 0.0000 -0.932 48.238 38.186
266 266 1 0.0000 4.744 8.590 47.932
267 267 1 0.0000 20.147 30.958 -0.664
268 268 1 0.0000 7.035 16.322 9.540
269 269 1 0.0000 11.761 37.281 19.971
270 270 1 0.0000 37.362 11.098 39.939
271 271 1 0.0000 22.781 38.014 27.165
272 272 1 0.0000 36.849 22.164 25.392
273 273 1 0.0000 15.733 9.367 48.498
274 274 1 0.0000 -3.491 34.951 4.066
275 275 1 0.0000 37.090 16.505 14.297
276 276 1 0.0000 18.193 8.503 11.817
277 277 1 0.0000 18.749 31.614 2.057
278 278 1 0.0000 38.449 34.385 38.880
279 279 1 0.0000 16.294 -0.272 35.221
280 280 1 0.0000 46.841 1.739 26.780
281 281 1 0.0000 38.448 22.294 27.225
282 282 1 0.0000 28.978 17.214 10.345
283 283 1 0.0000 8.891 25.099 28.062
284 284 1 0.0000 42.459 -3.388 2.164
285 285 1 0.0000 12.296 33.600 41.259
286 286 1 0.0000 -4.891 7.887 2.428
287 287 1 0.0000 14.775 43.298 0.543
288 288 1 0.0000 14.621 45.659 0.138
289 289 1 0.0000 28.422 16.588 14.149
290 290 1 0.0000 27.619 22.172 26.615
291 291 1 0.0000 42.432 -4.303 -5.692
292 292 1 0.0000 39.419 30.676 6.321
293 293 1 0.0000 3.756 16.782 0.699
294 294 1 0.0000 0.559 46.120 10.702
295 295 1 0.0000 40.416 0.037 0.420
296 296 1 0.0000 27.657 2.816 -2.526
297 297 1 0.0000 4.512 10.248 19.179
298 298 1 0.0000 16.390 10.205 41.563
299 299 1 0.0000 26.203 5.653 30.016
300 300 1 0.0000 8.612 19.850 30.631
301 301 1 0.0000 30.464 26.426 47.182
302 302 1 0.0000 1.338 16.288 7.963
303 303 1 0.0000 32.816 34.952 9.128
304 304 1 0.0000 27.034 -0.783 37.471
305 305 1 0.0000 39.545 13.638 32.605
306 306 1 0.0000 45.488 42.048 38.484
307 307 1 0.0000 28.928 18.605 17.382
308 308 1 0.0000 25.373 40.344 13.895
309 309 1 0.0000 11.034 4.329 16.532
310 310 1 0.0000 34.586 24.689 33.719
311 311 1 0.0000 40.508 35.161 33.000
312 312 1 0.0000 30.632 17.140 19.543
313 313 1 0.0000 42.236 11.829 36.227
314 314 1 0.0000 33.744 19.223 17.064
315 315 1 0.0000 40.479 41.475 4.779
316 316 1 0.0000 12.808 27.000 9.395
317 317 1 0.0000 8.644 23.368 32.386
318 318 1 0.0000 -1.373 27.363 15.111
319 319 1 0.0000 40.285 32.977 35.740
320 320 1 0.0000 10.588 -0.955 5.120
321 321 1 0.0000 24.919 31.602 28.927
322 322 1 0.0000 11.256 25.052 7.404
323 323 1 0.0000 39.866 11.645 37.865
324 324 1 0.0000 24.536 33.585 10.231
325 325 1 0.0000 21.370 43.735 40.721
326 326 1 0.0000 9.763 4.791 37.754
327 327 1 0.0000 41.349 47.328 5.146
328 328 1 0.0000 4.709 16.803 23.344
329 329 1 0.0000 26.173 3.907 -1.407
330 330 1 0.0000 7.746 32.966 22.208
331 331 1 0.0000 39.063 15.493 39.837
332 332 1 0.0000 -3.077 24.999 38.466
333 333 1 0.0000 8.157 18.407 32.957
334 334 1 0.0000 6.322 10.855 45.078
335 335 1 0.0000 13.606 -1.361 6.790
336 336 1 0.0000 31.135 43.510 21.541
337 337 1 0.0000 10.749 21.698 33.822
338 338 1 0.0000 44.512 34.284 35.142
339 339 1 0.0000 3.543 36.781 23.057
340 340 1 0.0000 6.873 19.042 2.519
341 341 1 0.0000 27.509 48.634 15.855
342 342 1 0.0000 45.751 36.091 8.869
343 343 1 0.0000 20.170 40.989 30.971
344 344 1 0.0000 35.039 1.518 19.670
345 345 1 0.0000 -0.722 6.162 0.899
346 346 1 0.0000 13.187 24.099 8.813
347 347 1 0.0000 48.625 6.257 23.829
348 348 1 0.0000 23.951 38.411 11.760
349 349 1 0.0000 42.025 22.398 43.251
350 350 1 0.0000 15.952 12.881 20.125
351 351 1 0.0000 22.174 14.691 20.235
352 352 1 0.0000 16.304 46.548 4.084
353 353 1 0.0000 18.725 15.045 33.212
354 354 1 0.0000 40.250 6.844 11.679
355 355 1 0.0000 18.241 41.132 42.241
356 356 1 0.0000 26.171 26.267 29.598
357 357 1 0.0000 2.775 37.266 25.094
358 358 1 0.0000 30.730 0.117 44.293
359 359 1 0.0000 26.429 39.470 38.866
360 360 1 0.0000 12.896 25.589 10.479
361 361 1 0.0000 46.309 39.123 8.906
362 362 1 0.0000 23.286 42.366 11.205
363 363 1 0.0000 39.588 41.723 29.570
364 364 1 0.0000 7.411 1.445 33.245
365 365 1 0.0000 37.141 30.412 12.769
366 366 1 0.0000 43.050 2.461 25.365
367 367 1 0.0000 41.421 43.458 25.504
368 368 1 0.0000 19.956 11.162 26.513
369 369 1 0.0000 23.902 17.755 47.920
370 370 1 0.0000 -0.715 36.420 27.775
371 371 1 0.0000 -3.715 23.448 40.751
372 372 1 0.0000 -0.796 38.111 26.029
373 373 1 0.0000 7.538 6.481 37.700
374 374 1 0.0000 -2.698 -0.288 18.281
375 375 1 0.0000 38.069 4.390 18.603
376 376 1 0.0000 45.535 7.231 3.950
377 377 1 0.0000 13.821 -5.089 22.650
378 378 1 0.0000 31.062 7.298 36.193
379 379 1 0.0000 42.441 26.072 19.295
380 380 1 0.0000 38.099 21.150 2.001
381 381 1 0.0000 -8.240 23.363 46.264
382 382 1 0.0000 13.808 7.249 9.946
383 383 1 0.0000 10.327 1.291 21.100
384 384 1 0.0000 42.363 7.295 8.145
385 385 1 0.0000 39.087 46.235 44.232
386 386 1 0.0000 -3.535 23.734 42.906
387 387 1 0.0000 45.965 28.969 3.212
388 388 1 0.0000 27.882 11.635 10.856
389 389 1 0.0000 17.793 31.699 42.590
390 390 1 0.0000 40.149 13.898 37.361
391 391 1 0.0000 -2.375 19.292 47.624
392 392 1 0.0000 29.160 26.172 25.261
393 393 1 0.0000 14.987 10.653 47.126
394 394 1 0.0000 11.665 -3.844 16.141
395 395 1 0.0000 11.276 -2.565 24.336
396 396 1 0.0000 8.275 -1.311 19.810
397 397 1 0.0000 9.930 5.328 33.014
398 398 1 0.0000 -0.602 25.585 41.041
399 399 1 0.0000 33.621 -0.107 45.823
400 400 1 0.0000 11.396 -3.638 32.583
401 401 1 0.0000 10.418 -4.591 21.223
402 402 1 0.0000 14.067 28.857 46.339
403 403 1 0.0000 1.363 -3.881 35.750
404 404 1 0.0000 4.765 37.327 40.044
405 405 1 0.0000 38.367 20.542 -1.800
406 406 1 0.0000 28.122 24.886 26.905
407 407 1 0.0000 26.903 21.715 38.806
408 408 1 0.0000 2.411 17.654 7.931
409 409 1 0.0000 12.440 1.072 34.718
410 410 1 0.0000 12.224 39.340 45.475
411 411 1 0.0000 22.095 39.626 39.303
412 412 1 0.0000 7.234 2.501 18.937
413 413 1 0.0000 22.334 27.025 21.437
414 414 1 0.0000 26.872 48.936 22.971
415 415 1 0.0000 34.700 32.262 11.817
416 416 1 0.0000 38.901 46.374 32.858
417 417 1 0.0000 -1.947 1.505 23.473
418 418 1 0.0000 41.838 15.435 39.609
419 419 1 0.0000 29.216 45.290 42.481
420 420 1 0.0000 45.099 9.888 23.568
421 421 1 0.0000 25.094 24.909 26.731
422 422 1 0.0000 35.296 32.164 7.557
423 423 1 0.0000 -4.155 22.963 44.468
424 424 1 0.0000 9.149 7.570 12.174
425 425 1 0.0000 -3.612 32.087 0.117
426 426 1 0.0000 -2.475 20.344 44.275
427 427 1 0.0000 47.133 31.416 5.890
428 428 1 0.0000 32.813 45.673 48.980
429 429 1 0.0000 23.666 25.296 -5.536
430 430 1 0.0000 -1.926 24.920 43.026
431 431 1 0.0000 19.788 25.153 -0.955
432 432 1 0.0000 7.208 25.041 32.276
433 433 1 0.0000 25.472 43.465 6.562
434 434 1 0.0000 10.062 25.994 32.405
435 435 1 0.0000 -2.549 33.751 5.949
436 436 1 0.0000 37.325 36.129 6.516
437 437 1 0.0000 26.459 9.434 9.873
438 438 1 0.0000 2.572 3.228 1.169
439 439 1 0.0000 29.348 8.895 7.736
440 440 1 0.0000 43.729 4.338 23.687
441 441 1 0.0000 30.187 32.212 35.882
442 442 1 0.0000 17.229 44.019 32.131
443 443 1 0.0000 37.523 26.700 26.303
444 444 1 0.0000 1.198 1.606 23.681
445 445 1 0.0000 1.698 31.429 43.797
446 446 1 0.0000 15.004 33.772 20.666
447 447 1 0.0000 -3.824 -0.316 2.403
448 448 1 0.0000 43.336 18.244 19.974
449 449 1 0.0000 2.280 40.999 7.179
450 450 1 0.0000 10.890 4.777 34.477
451 451 1 0.0000 10.645 16.119 22.137
452 452 1 0.0000 21.778 41.138 43.228
453 453 1 0.0000 29.978 33.274 26.186
454 454 1 0.0000 45.511 16.217 31.532
455 455 1 0.0000 27.890 7.439 3.534
456 456 1 0.0000 46.435 0.075 -3.361
457 457 1 0.0000 11.583 20.431 8.205
458 458 1 0.0000 43.428 44.547 47.202
459 459 1 0.0000 28.910 20.670 42.691
460 460 1 0.0000 -0.949 1.697 26.744
461 461 1 0.0000 40.394 -2.800 1.073
462 462 1 0.0000 42.100 -0.529 4.467
463 463 1 0.0000 30.460 29.207 -2.825
464 464 1 0.0000 -4.650 1.384 0.702
465 465 1 0.0000 33.419 24.656 -6.126
466 466 1 0.0000 -0.188 0.776 -1.333
467 467 1 0.0000 1.079 32.321 1.125
468 468 1 0.0000 30.733 11.376 40.491
469 469 1 0.0000 25.510 29.565 -1.618
470 470 1 0.0000 20.267 4.068 20.072
471 471 1 0.0000 31.194 11.965 13.016
472 472 1 0.0000 44.629 1.599 23.919
473 473 1 0.0000 27.801 33.045 23.061
474 474 1 0.0000 20.220 20.120 -0.791
475 475 1 0.0000 -0.257 30.685 42.933
476 476 1 0.0000 18.458 1.564 22.616
477 477 1 0.0000 -6.375 1.480 2.516
478 478 1 0.0000 27.286 31.795 2.741
479 479 1 0.0000 46.412 8.344 24.001
480 480 1 0.0000 41.110 31.293 6.744
481 481 1 0.0000 5.724 22.836 18.142
482 482 1 0.0000 3.486 29.530 43.138
483 483 1 0.0000 45.429 -0.589 22.245
484 484 1 0.0000 32.244 27.700 39.128
485 485 1 0.0000 23.867 6.910 -3.413
486 486 1 0.0000 12.327 -0.358 -3.344
487 487 1 0.0000 41.896 11.313 12.060
488 488 1 0.0000 37.557 35.072 10.952
489 489 1 0.0000 25.047 23.526 43.705
490 490 1 0.0000 48.442 10.242 36.960
491 491 1 0.0000 47.621 45.548 5.546
492 492 1 0.0000 17.144 1.213 -0.302
493 493 1 0.0000 28.652 37.431 29.392
494 494 1 0.0000 35.503 29.826 12.555
495 495 1 0.0000 -0.041 3.145 1.752
496 496 1 0.0000 4.639 23.228 15.960
497 497 1 0.0000 42.438 39.375 38.810
498 498 1 0.0000 -3.804 0.298 -1.606
499 499 1 0.0000 9.690 43.271 23.023
500 500 1 0.0000 24.668 7.963 -1.967
501 501 1 0.0000 21.674 2.026 22.299
502 502 1 0.0000 33.603 13.013 38.835
503 503 1 0.0000 -3.254 36.242 33.119
504 504 1 0.0000 32.436 13.238 42.205
505 505 1 0.0000 29.382 36.856 17.880
506 506 1 0.0000 34.753 10.763 39.771
507 507 1 0.0000 15.563 4.417 12.412
508 508 1 0.0000 23.763 14.376 14.437
509 509 1 0.0000 39.486 19.109 20.376
510 510 1 0.0000 7.796 20.946 35.739
511 511 1 0.0000 33.108 41.325 -0.839
512 512 1 0.0000 12.586 5.103 0.066
513 513 1 0.0000 11.646 34.635 38.830
514 514 1 0.0000 -2.328 34.052 2.497
515 515 1 0.0000 19.994 6.160 -0.507
516 516 1 0.0000 26.969 10.812 39.714
517 517 1 0.0000 27.401 39.998 21.986
518 518 1 0.0000 12.626 34.484 -4.186
519 519 1 0.0000 43.309 16.307 19.191
520 520 1 0.0000 41.661 18.326 43.552
521 521 1 0.0000 20.961 22.404 1.238
522 522 1 0.0000 15.177 30.912 47.026
523 523 1 0.0000 44.558 45.923 20.441
524 524 1 0.0000 26.103 43.258 42.647
525 525 1 0.0000 30.744 25.257 -0.081
526 526 1 0.0000 28.209 32.126 28.419
527 527 1 0.0000 33.417 12.203 40.983
528 528 1 0.0000 30.098 32.236 23.000
529 529 1 0.0000 27.860 47.893 -1.066
530 530 1 0.0000 2.425 12.453 0.976
531 531 1 0.0000 -0.040 41.647 6.479
532 532 1 0.0000 13.800 31.746 1.273
533 533 1 0.0000 7.669 26.850 14.067
534 534 1 0.0000 14.468 25.078 35.628
535 535 1 0.0000 -1.914 3.205 5.804
536 536 1 0.0000 35.471 15.400 40.132
537 537 1 0.0000 13.313 4.412 13.770
538 538 1 0.0000 -3.210 9.877 22.589
539 539 1 0.0000 15.810 5.141 17.406
540 540 1 0.0000 23.531 9.243 11.390
541 541 1 0.0000 32.336 24.137 4.758
542 542 1 0.0000 32.506 3.480 4.611
543 543 1 0.0000 0.441 -4.508 41.741
544 544 1 0.0000 6.217 45.242 30.748
545 545 1 0.0000 27.633 -3.739 34.546
546 546 1 0.0000 0.658 38.206 33.335
547 547 1 0.0000 -2.609 37.253 42.475
548 548 1 0.0000 -6.146 10.225 25.615
549 549 1 0.0000 -0.676 44.297 41.354
550 550 1 0.0000 42.773 14.455 16.671
551 551 1 0.0000 45.448 15.207 24.033
552 552 1 0.0000 22.785 -1.534 35.161
553 553 1 0.0000 34.987 23.349 1.397
554 554 1 0.0000 21.025 25.944 -5.010
555 555 1 0.0000 16.438 34.152 12.617
556 556 1 0.0000 27.553 30.445 31.208
557 557 1 0.0000 37.344 13.032 48.545
558 558 1 0.0000 25.281 9.930 40.830
559 559 1 0.0000 17.403 19.578 25.727
560 560 1 0.0000 18.984 23.137 -2.864
561 561 1 0.0000 43.251 33.213 7.011
562 562 1 0.0000 21.454 1.634 28.125
563 563 1 0.0000 40.229 3.146 27.104
564 564 1 0.0000 30.578 39.267 45.844
565 565 1 0.0000 46.230 35.856 15.454
566 566 1 0.0000 2.277 2.594 9.287
567 567 1 0.0000 8.737 33.681 19.837
568 568 1 0.0000 35.566 34.708 14.600
569 569 1 0.0000 31.097 6.922 5.817
570 570 1 0.0000 0.020 34.905 33.607
571 571 1 0.0000 2.255 33.972 -1.442
572 572 1 0.0000 31.730 -0.195 28.568
573 573 1 0.0000 33.032 41.305 42.799
574 574 1 0.0000 -2.626 8.507 27.249
575 575 1 0.0000 43.392 21.784 41.419
576 576 1 0.0000 33.696 36.729 17.040
577 577 1 0.0000 40.242 17.728 23.240
578 578 1 0.0000 34.673 42.532 45.124
579 579 1 0.0000 32.369 1.593 4.903
580 580 1 0.0000 42.803 16.398 30.274
581 581 1 0.0000 13.292 19.693 2.086
582 582 1 0.0000 39.171 23.369 44.976
583 583 1 0.0000 22.616 13.739 41.872
584 584 1 0.0000 35.696 35.333 18.715
585 585 1 0.0000 -1.042 31.487 2.911
586 586 1 0.0000 4.437 -0.467 33.887
587 587 1 0.0000 8.869 42.045 25.918
588 588 1 0.0000 19.250 22.148 -4.799
589 589 1 0.0000 -1.403 21.106 11.623
590 590 1 0.0000 23.551 4.610 25.327
591 591 1 0.0000 21.575 17.213 11.374
592 592 1 0.0000 0.698 -0.444 7.627
593 593 1 0.0000 36.682 16.004 1.904
594 594 1 0.0000 18.040 19.692 12.272
595 595 1 0.0000 22.900 23.771 -3.661
596 596 1 0.0000 0.037 10.315 29.046
597 597 1 0.0000 4.044 -4.853 9.765
598 598 1 0.0000 35.340 34.970 16.297
599 599 1 0.0000 7.328 16.897 20.917
600 600 1 0.0000 19.926 13.888 10.042
601 601 1 0.0000 44.976 21.115 32.619
602 602 1 0.0000 20.866 7.671 40.214
603 603 1 0.0000 29.617 34.468 29.302
604 604 1 0.0000 20.560 23.352 -1.995
605 605 1 0.0000 35.632 38.018 17.496
606 606 1 0.0000 23.113 6.203 26.378
607 607 1 0.0000 41.716 43.365 19.701
608 608 1 0.0000 18.942 25.151 24.286
609 609 1 0.0000 44.781 23.245 41.331
610 610 1 0.0000 34.437 4.076 4.645
611 611 1 0.0000 15.260 34.602 41.813
612 612 1 0.0000 46.452 41.020 10.524
613 613 1 0.0000 47.829 13.107 40.764
614 614 1 0.0000 10.883 2.382 34.692
615 615 1 0.0000 18.808 25.319 0.623
616 616 1 0.0000 37.900 40.154 16.494
617 617 1 0.0000 12.853 38.751 20.365
618 618 1 0.0000 15.065 48.152 1.052
619 619 1 0.0000 41.303 19.955 26.656
620 620 1 0.0000 3.090 -0.478 8.718
621 621 1 0.0000 10.639 2.571 45.532
622 622 1 0.0000 16.988 13.517 37.864
623 623 1 0.0000 1.472 34.899 28.361
624 624 1 0.0000 41.543 23.764 49.236
625 625 1 0.0000 45.044 8.232 13.732
626 626 1 0.0000 42.553 20.503 44.316
627 627 1 0.0000 23.797 24.201 0.804
628 628 1 0.0000 45.658 30.250 35.382
629 629 1 0.0000 13.113 43.618 21.523
630 630 1 0.0000 40.333 23.849 40.678
631 631 1 0.0000 33.384 24.286 2.665
632 632 1 0.0000 10.771 26.141 5.316
633 633 1 0.0000 21.203 36.406 28.541
634 634 1 0.0000 22.375 9.378 3.347
635 635 1 0.0000 1.348 40.070 31.589
636 636 1 0.0000 35.975 -4.926 31.411
637 637 1 0.0000 38.464 1.244 30.185
638 638 1 0.0000 21.891 36.859 32.918
639 639 1 0.0000 2.962 3.239 28.439
640 640 1 0.0000 46.070 17.844 37.927
641 641 1 0.0000 44.798 11.964 15.913
642 642 1 0.0000 11.626 31.979 22.210
643 643 1 0.0000 46.723 27.061 38.904
644 644 1 0.0000 33.661 -3.002 28.092
645 645 1 0.0000 22.286 27.970 0.498
646 646 1 0.0000 4.501 37.032 42.309
647 647 1 0.0000 19.441 7.612 7.721
648 648 1 0.0000 40.583 45.522 22.738
649 649 1 0.0000 21.665 46.780 38.447
650 650 1 0.0000 38.138 2.732 42.730
651 651 1 0.0000 24.015 4.907 23.322
652 652 1 0.0000 25.743 44.028 4.593
653 653 1 0.0000 26.577 9.119 21.807
654 654 1 0.0000 3.492 -2.489 8.249
655 655 1 0.0000 38.122 44.625 41.136
656 656 1 0.0000 2.377 45.789 9.213
657 657 1 0.0000 30.563 27.529 14.543
658 658 1 0.0000 23.964 19.460 33.124
659 659 1 0.0000 17.295 31.401 10.085
660 660 1 0.0000 3.997 -2.927 39.743
661 661 1 0.0000 6.993 20.881 24.184
662 662 1 0.0000 34.301 9.938 19.873
663 663 1 0.0000 21.390 11.621 6.786
664 664 1 0.0000 8.375 10.203 31.134
665 665 1 0.0000 -3.136 38.731 14.872
666 666 1 0.0000 -1.172 10.029 3.630
667 667 1 0.0000 20.173 38.057 16.610
668 668 1 0.0000 26.797 21.518 45.284
669 669 1 0.0000 5.913 -1.191 41.094
670 670 1 0.0000 40.900 2.178 45.435
671 671 1 0.0000 -4.277 35.537 18.399
672 672 1 0.0000 42.553 17.407 47.649
673 673 1 0.0000 25.479 17.138 33.969
674 674 1 0.0000 10.294 24.660 34.436
675 675 1 0.0000 22.501 20.016 14.952
676 676 1 0.0000 12.966 35.593 34.210
677 677 1 0.0000 33.287 -0.843 26.687
678 678 1 0.0000 -1.943 35.863 19.343
679 679 1 0.0000 2.190 0.203 10.209
680 680 1 0.0000 32.799 -5.208 26.598
681 681 1 0.0000 15.850 36.728 33.559
682 682 1 0.0000 25.762 18.684 33.238
683 683 1 0.0000 19.892 48.772 8.912
684 684 1 0.0000 32.471 -3.990 29.992
685 685 1 0.0000 45.027 20.285 42.541
686 686 1 0.0000 35.877 27.697 41.623
687 687 1 0.0000 5.360 17.566 43.230
688 688 1 0.0000 10.185 19.097 20.506
689 689 1 0.0000 5.934 24.855 40.016
690 690 1 0.0000 28.010 46.766 13.758
691 691 1 0.0000 25.875 45.105 7.912
692 692 1 0.0000 33.328 6.752 7.290
693 693 1 0.0000 40.274 45.801 48.709
694 694 1 0.0000 1.107 36.882 44.552
695 695 1 0.0000 26.549 46.821 11.079
696 696 1 0.0000 34.020 4.893 2.109
697 697 1 0.0000 42.885 35.328 18.891
698 698 1 0.0000 7.054 42.990 19.111
699 699 1 0.0000 5.737 12.589 43.323
700 700 1 0.0000 29.826 24.336 27.382
701 701 1 0.0000 -2.429 1.399 28.233
702 702 1 0.0000 33.999 -1.169 29.430
703 703 1 0.0000 17.021 1.947 -3.587
704 704 1 0.0000 36.464 29.226 37.450
705 705 1 0.0000 14.790 28.234 9.871
706 706 1 0.0000 -3.008 2.267 30.830
707 707 1 0.0000 7.039 16.550 48.871
708 708 1 0.0000 4.254 6.593 13.585
709 709 1 0.0000 -0.680 -0.801 31.081
710 710 1 0.0000 22.863 10.749 5.680
711 711 1 0.0000 1.291 41.016 48.317
712 712 1 0.0000 13.898 38.953 23.487
713 713 1 0.0000 31.830 4.255 10.988
714 714 1 0.0000 12.047 3.043 48.156
715 715 1 0.0000 44.856 35.586 17.362
716 716 1 0.0000 43.717 21.180 12.780
717 717 1 0.0000 33.852 -2.926 8.710
718 718 1 0.0000 10.755 44.741 28.459
719 719 1 0.0000 14.971 -0.325 46.816
720 720 1 0.0000 27.087 35.878 22.822
721 721 1 0.0000 28.355 19.559 8.661
722 722 1 0.0000 32.226 0.126 9.707
723 723 1 0.0000 11.323 29.623 37.635
724 724 1 0.0000 31.250 -1.340 27.364
725 725 1 0.0000 40.739 44.435 35.895
726 726 1 0.0000 17.241 17.135 -1.818
727 727 1 0.0000 27.924 0.191 25.604
728 728 1 0.0000 47.502 21.178 45.696
729 729 1 0.0000 18.805 35.483 11.300
730 730 1 0.0000 33.055 0.909 12.059
731 731 1 0.0000 17.209 26.754 34.030
732 732 1 0.0000 42.881 43.089 34.117
733 733 1 0.0000 44.447 19.853 38.417
734 734 1 0.0000 44.555 30.443 22.227
735 735 1 0.0000 39.680 20.831 45.414
736 736 1 0.0000 44.475 39.951 22.894
737 737 1 0.0000 6.151 41.653 39.992
738 738 1 0.0000 41.141 0.914 7.394
739 739 1 0.0000 32.736 1.252 25.957
740 740 1 0.0000 27.083 35.958 -0.553
741 741 1 0.0000 35.282 3.740 6.572
742 742 1 0.0000 15.720 7.276 17.512
743 743 1 0.0000 44.590 12.271 10.925
744 744 1 0.0000 30.976 32.514 47.316
745 745 1 0.0000 2.794 17.752 41.933
746 746 1 0.0000 45.337 28.841 17.613
747 747 1 0.0000 1.827 20.154 45.142
748 748 1 0.0000 27.619 19.950 6.699
749 749 1 0.0000 3.266 9.170 14.405
750 750 1 0.0000 28.010 22.620 11.411
751 751 1 0.0000 6.515 43.468 32.537
752 752 1 0.0000 27.782 27.267 32.707
753 753 1 0.0000 10.001 5.818 17.363
754 754 1 0.0000 4.614 7.061 34.386
755 755 1 0.0000 45.487 15.353 7.785
756 756 1 0.0000 42.933 42.731 18.376
757 757 1 0.0000 30.450 3.467 31.437
758 758 1 0.0000 3.685 45.864 45.300
759 759 1 0.0000 30.602 35.983 3.160
760 760 1 0.0000 14.565 1.776 38.308
761 761 1 0.0000 2.030 22.989 48.258
762 762 1 0.0000 20.821 0.480 22.959
763 763 1 0.0000 10.878 44.397 20.629
764 764 1 0.0000 45.791 4.441 19.637
765 765 1 0.0000 18.596 4.473 -3.487
766 766 1 0.0000 28.126 26.213 31.353
767 767 1 0.0000 27.564 20.752 32.192
768 768 1 0.0000 29.938 24.673 30.878
769 769 1 0.0000 37.105 8.950 11.647
770 770 1 0.0000 19.250 2.680 25.203
771 771 1 0.0000 4.670 35.475 40.039
772 772 1 0.0000 12.340 49.565 18.955
773 773 1 0.0000 28.045 34.385 44.303
774 774 1 0.0000 17.661 10.083 38.679
775 775 1 0.0000 7.559 7.207 19.506
776 776 1 0.0000 6.940 18.804 26.292
777 777 1 0.0000 35.192 3.863 21.415
778 778 1 0.0000 7.791 43.019 41.404
779 779 1 0.0000 28.119 27.335 17.250
780 780 1 0.0000 29.587 33.181 44.916
781 781 1 0.0000 12.739 46.920 20.019
782 782 1 0.0000 21.772 4.615 27.689
783 783 1 0.0000 42.996 32.131 30.564
784 784 1 0.0000 19.494 1.548 -2.931
785 785 1 0.0000 11.607 36.057 12.307
786 786 1 0.0000 43.252 -3.544 40.407
787 787 1 0.0000 28.938 25.919 19.890
788 788 1 0.0000 13.520 21.661 35.041
789 789 1 0.0000 8.986 0.113 0.939
790 790 1 0.0000 30.245 12.550 31.775
791 791 1 0.0000 41.995 44.584 30.666
792 792 1 0.0000 11.395 23.297 39.590
793 793 1 0.0000 46.723 29.591 22.189
794 794 1 0.0000 10.737 6.036 1.668
795 795 1 0.0000 -1.754 35.637 12.017
796 796 1 0.0000 42.140 41.454 -1.290
797 797 1 0.0000 29.156 12.802 29.380
798 798 1 0.0000 12.094 21.951 1.137
799 799 1 0.0000 30.145 10.924 34.929