LAMMPS Description

5 atoms
4 bonds
3 angles
2 dihedrals
1 impropers

4 atom types
3 bond types
3 angle types
1 dihedral types
1 improper types

-0.37 5.47 xlo xhi
-2.65 3.20 ylo yhi
-2.90 2.95 zlo zhi

Masses

1 15.035 # CH3 Isobutane C 84
2 15.999 # OH Alcohol Hydroxyl O 104
3 1.008 # H Alcohol Hydroxyl H 105
4 13.019 # CH Isopropanol C 108

Pair Coeffs

1 0.1600 3.9100
2 0.1700 3.0700
3 0.0000 0.0000
4 0.0800 3.8500

Bond Coeffs

1  260.0 1.526
2  553.0 0.945
3  386.0 1.425

Angle Coeffs

1 63.0 112.4
2 55.0 108.5
3 80.0 109.5

Dihedral Coeffs

1  0.0 0.0 1.0 0.0

Improper Coeffs

1 14.0 -1 3

Atoms

1 1 1 0.0000 3.805 0.943 0.597
2 1 4 0.2650 2.379 0.429 0.431
3 1 1 0.0000 1.929 -0.559 1.505
4 1 2 -0.7000 2.023 0.072 -0.901
5 1 3 0.4350 2.611 0.490 -1.512

Bonds

1 1 1 2
2 1 2 3
3 3 2 4
4 2 4 5

Angles

1 1 1 2 3
2 3 3 2 4
3 2 5 4 2

Dihedrals

1 1 1 2 4 5
2 1 3 2 4 5

Impropers

1 1 1 3 2 4

