LAMMPS Description

3 atoms
2 bonds
1 angles
0 dihedrals
0 impropers

3 atom types
2 bond types
1 angle types
0 dihedral types
0 improper types

-0.31 4.42 xlo xhi
-2.19 2.55 ylo yhi
-2.04 2.70 zlo zhi

Masses

1 15.999 # OH Alcohol Hydroxyl O 104
2 1.008 # H Alcohol Hydroxyl H 105
3 15.035 # CH3 Methanol C 106

Pair Coeffs

1 0.1700 3.0700
2 0.0000 0.0000
3 0.2070 3.7750

Bond Coeffs

1  553.0 0.945
2  386.0 1.425

Angle Coeffs

1 55.0 108.5

Atoms

1 1 3 0.2650 1.748 -0.778 -0.129
2 1 1 -0.7000 1.833 0.395 0.675
3 1 2 0.4350 2.583 0.922 0.447

Bonds

1 2 1 2
2 1 2 3

Angles

1 1 3 2 1

