LAMMPS Description # full

4 atoms
3 bonds
2 angles
1 dihedrals
0 impropers

4 atom types
3 bond types
2 angle types
1 dihedral types
0 improper types

-13.13 13.27 xlo xhi # 0.00 5.35
-10.29 16.11 ylo yhi # 0.00 5.35
-9.68 16.72 zlo zhi # 0.00 5.35

Masses

1 15.035 # CH3 n-Butane C 83
2 15.999 # OH Alcohol Hydroxyl O 104
3 1.008 # H Alcohol Hydroxyl H 105
4 14.027 # CH2 Ethanol C 107

Pair Coeffs

1 0.1750 3.9050
2 0.1700 3.0700
3 0.0000 0.0000
4 0.1180 3.9050

Bond Coeffs

1  260.0 1.526
2  553.0 0.945
3  386.0 1.425

Angle Coeffs

1 55.0 108.5
2 80.0 109.5

Dihedral Coeffs

1  0.0 0.0 1.0 0.0

Atoms

1 1 1 0.0000 0.168 2.922 1.815
2 1 4 0.2650 0.336 3.519 3.209
3 1 2 -0.7000 -0.342 2.658 4.119
4 1 3 0.4350 0.124 2.534 4.931

Bonds

1 1 1 2
2 3 2 3
3 2 3 4

Angles

1 2 1 2 3
2 1 4 3 2

Dihedrals

1 1 1 2 3 4

