LAMMPS (7 Feb 2024 - Development - patch_7Feb2024-18-gc6a8f1fe58)
units real
atom_style full
bond_style harmonic
angle_style harmonic
dihedral_style opls
improper_style cvff
pair_style lj/cut/coul/long 11.0 11.0
pair_modify mix geometric
special_bonds lj/coul 0 0 0.5
kspace_style pppm 0.0001
read_data polymer_builder.data
Reading data file ...
  orthogonal box = (-6.06 -5.76 -5.43) to (31.35 30.59 30.86)
  1 by 1 by 1 MPI processor grid
  reading atoms ...
  1200 atoms
  scanning bonds ...
  2 = max bonds/atom
  scanning angles ...
  1 = max angles/atom
  reading bonds ...
  800 bonds
  reading angles ...
  400 angles
Finding 1-2 1-3 1-4 neighbors ...
  special bond factors lj:    0        0        0.5     
  special bond factors coul:  0        0        0.5     
     2 = max # of 1-2 neighbors
     1 = max # of 1-3 neighbors
     1 = max # of 1-4 neighbors
     2 = max # of special neighbors
  special bonds CPU = 0.000 seconds
  read_data CPU = 0.007 seconds
dump 1 all custom 1000 dump.custom.gz id xu yu zu
dump_modify 1 sort id
min_style fire
minimize 1.0e-6 1.0e-8 10000 100000
PPPM initialization ...
  using 12-bit tables for long-range coulomb (src/kspace.cpp:342)
  G vector (1/distance) = 0.2287919
  grid = 15 15 15
  stencil order = 5
  estimated absolute RMS force accuracy = 0.026355406
  estimated relative force accuracy = 7.9368522e-05
  using double precision FFTW3
  3d grid and FFT values/proc = 8000 3375
Generated 1 of 1 mixed pair_coeff terms from geometric mixing rule
Neighbor list info ...
  update: every = 1 steps, delay = 0 steps, check = yes
  max neighbors/atom: 2000, page size: 100000
  master list distance cutoff = 13
  ghost atom cutoff = 13
  binsize = 6.5, bins = 6 6 6
  1 neighbor lists, perpetual/occasional/extra = 1 0 0
  (1) pair lj/cut/coul/long, perpetual
      attributes: half, newton on
      pair build: half/bin/newton
      stencil: half/bin/3d
      bin: standard
  Parameters for fire:
    dmax  delaystep dtgrow dtshrink alpha0 alphashrink tmax tmin   integrator   halfstepback   abcfire  
     0.1     20      1.1     0.5     0.25     0.99      10  0.02 eulerimplicit      yes          no     
Per MPI rank memory allocation (min/avg/max) = 8.197 | 8.197 | 8.197 Mbytes
   Step          Temp          E_pair         E_mol          TotEng         Press     
         0   0              906.28747      159.01983      1065.3073      6056.4684    
      8220   0.099904137   -4722.8183      332.97662     -4389.4846     -312.61504    
Loop time of 39.7775 on 1 procs for 8220 steps with 1200 atoms

99.0% CPU use with 1 MPI tasks x no OpenMP threads

Minimization stats:
  Stopping criterion = energy tolerance
  Energy initial, next-to-last, final = 
      1065.30729424938  -4389.83847748666   -4389.8417062047
  Force two-norm initial, final = 1917.9696 3.3548356
  Force max component initial, final = 569.73543 0.40396773
  Final line search alpha, max atom move = 0 0
  Iterations, force evaluations = 8220 8657

MPI task timing breakdown:
Section |  min time  |  avg time  |  max time  |%varavg| %total
---------------------------------------------------------------
Pair    | 34.262     | 34.262     | 34.262     |   0.0 | 86.13
Bond    | 0.29261    | 0.29261    | 0.29261    |   0.0 |  0.74
Kspace  | 4.7536     | 4.7536     | 4.7536     |   0.0 | 11.95
Neigh   | 0.089887   | 0.089887   | 0.089887   |   0.0 |  0.23
Comm    | 0.15492    | 0.15492    | 0.15492    |   0.0 |  0.39
Output  | 0.0069669  | 0.0069669  | 0.0069669  |   0.0 |  0.02
Modify  | 0          | 0          | 0          |   0.0 |  0.00
Other   |            | 0.2173     |            |       |  0.55

Nlocal:           1200 ave        1200 max        1200 min
Histogram: 1 0 0 0 0 0 0 0 0 0
Nghost:           4039 ave        4039 max        4039 min
Histogram: 1 0 0 0 0 0 0 0 0 0
Neighs:         181559 ave      181559 max      181559 min
Histogram: 1 0 0 0 0 0 0 0 0 0

Total # of neighbors = 181559
Ave neighs/atom = 151.29917
Ave special neighs/atom = 2
Neighbor list builds = 23
Dangerous builds = 0
timestep 1
thermo_modify flush yes
thermo 1000
fix rigid all shake 0.0001 10 10000 b 1 a 1
Finding SHAKE clusters ...
       0 = # of size 2 clusters
       0 = # of size 3 clusters
       0 = # of size 4 clusters
     400 = # of frozen angles
  find clusters CPU = 0.000 seconds
velocity all create 10 482748
fix 1a all temp/berendsen 10 10 100
fix 1b all nve
run 1000
PPPM initialization ...
  using 12-bit tables for long-range coulomb (src/kspace.cpp:342)
  G vector (1/distance) = 0.2287919
  grid = 15 15 15
  stencil order = 5
  estimated absolute RMS force accuracy = 0.026355406
  estimated relative force accuracy = 7.9368522e-05
  using double precision FFTW3
  3d grid and FFT values/proc = 8000 3375
Generated 1 of 1 mixed pair_coeff terms from geometric mixing rule
SHAKE stats (type/ave/delta/count) on step 8220
Bond:   1   1.01882   0.036278         800
Angle:  1   103.972   11.0638          400
Per MPI rank memory allocation (min/avg/max) = 10.41 | 10.41 | 10.41 Mbytes
   Step          Temp          E_pair         E_mol          TotEng         Press     
      8220   10            -4722.8183      0             -4699.0017      90.201584    
      9000   18.542936     -4187.5837      0             -4143.4206     -158.59466    
      9220   18.696886     -4235.1351      0             -4190.6054     -82.695898    
Loop time of 3.38359 on 1 procs for 1000 steps with 1200 atoms

Performance: 25.535 ns/day, 0.940 hours/ns, 295.544 timesteps/s, 354.653 katom-step/s
98.6% CPU use with 1 MPI tasks x no OpenMP threads

MPI task timing breakdown:
Section |  min time  |  avg time  |  max time  |%varavg| %total
---------------------------------------------------------------
Pair    | 2.7043     | 2.7043     | 2.7043     |   0.0 | 79.92
Bond    | 0.00072211 | 0.00072211 | 0.00072211 |   0.0 |  0.02
Kspace  | 0.54751    | 0.54751    | 0.54751    |   0.0 | 16.18
Neigh   | 0.031794   | 0.031794   | 0.031794   |   0.0 |  0.94
Comm    | 0.017486   | 0.017486   | 0.017486   |   0.0 |  0.52
Output  | 0.00097503 | 0.00097503 | 0.00097503 |   0.0 |  0.03
Modify  | 0.074394   | 0.074394   | 0.074394   |   0.0 |  2.20
Other   |            | 0.006416   |            |       |  0.19

Nlocal:           1200 ave        1200 max        1200 min
Histogram: 1 0 0 0 0 0 0 0 0 0
Nghost:           3816 ave        3816 max        3816 min
Histogram: 1 0 0 0 0 0 0 0 0 0
Neighs:         197608 ave      197608 max      197608 min
Histogram: 1 0 0 0 0 0 0 0 0 0

Total # of neighbors = 197608
Ave neighs/atom = 164.67333
Ave special neighs/atom = 2
Neighbor list builds = 8
Dangerous builds = 0
unfix 1b
unfix 1a

fix 2a all press/berendsen iso 1 1 10000
fix 2b all temp/berendsen 10 300 100
fix 2c all nve
run 100000
PPPM initialization ...
  using 12-bit tables for long-range coulomb (src/kspace.cpp:342)
  G vector (1/distance) = 0.2287919
  grid = 15 15 15
  stencil order = 5
  estimated absolute RMS force accuracy = 0.026355406
  estimated relative force accuracy = 7.9368522e-05
  using double precision FFTW3
  3d grid and FFT values/proc = 8000 3375
Generated 1 of 1 mixed pair_coeff terms from geometric mixing rule
SHAKE stats (type/ave/delta/count) on step 9220
Bond:   1   1         1.1962e-06       800
Angle:  1   109.47    8.51731e-05      400
Per MPI rank memory allocation (min/avg/max) = 10.79 | 10.79 | 10.79 Mbytes
   Step          Temp          E_pair         E_mol          TotEng         Press          Volume    
      9220   18.696886     -4235.1351      0             -4190.6054     -82.576584      49349.084    
