LAMMPS Description # full

50 atoms
45 bonds
40 angles
35 dihedrals
0 impropers

2 atom types
2 bond types
2 angle types
1 dihedral types
0 improper types

0 7.6878 xlo xhi
0 7.6878 ylo yhi
0 7.6878 zlo zhi

Masses

1 15.0350 # CH3 n-Butane C 83 #
2 14.0270 # CH2 n-Butane C 86 #

Pair Coeffs

1 0.1750 3.9050
2 0.1180 3.9050

Bond Coeffs

1 260.0000 1.5260
2 260.0000 1.5260

Angle Coeffs

1 63.0000 112.4000
2 63.0000 112.4000

Dihedral Coeffs

1 0.0000 0.0000 4.0000 0.0000

Atoms

1 1 1 0.0000 2.4249 0.9275 6.0108
2 1 2 0.0000 3.7469 1.6897 6.0215
3 1 2 0.0000 4.8766 0.7281 5.6639
4 1 2 0.0000 5.6068 1.1841 4.4040
5 1 2 0.0000 6.8491 0.3045 4.2956
6 1 2 0.0000 6.4594 -1.1171 4.6903
7 1 2 0.0000 5.0824 -1.3939 4.0937
8 1 2 0.0000 5.1210 -1.0103 2.6172
9 1 2 0.0000 3.7266 -0.5577 2.1937
10 1 1 0.0000 2.9088 -1.7423 1.6872
11 2 1 0.0000 0.5009 2.2295 3.0607
12 2 2 0.0000 -0.1140 3.3688 2.2529
13 2 2 0.0000 -0.7979 4.3419 3.2089
14 2 2 0.0000 -1.3144 3.6197 4.4500
15 2 2 0.0000 -2.8364 3.6296 4.3400
16 2 2 0.0000 -3.4104 3.8939 5.7291
17 2 2 0.0000 -2.5299 4.9492 6.3922
18 2 2 0.0000 -3.2315 6.2984 6.2648
19 2 2 0.0000 -4.5850 6.2128 6.9643
20 2 1 0.0000 -4.7688 7.3860 7.9227
21 3 1 0.0000 -0.4769 3.9968 -1.4821
22 3 2 0.0000 -0.9182 3.0312 -0.3859
23 3 2 0.0000 -0.2126 1.6936 -0.5896
24 3 2 0.0000 0.5060 1.6519 -1.9351
25 3 2 0.0000 1.3344 2.9313 -2.0100
26 3 2 0.0000 1.9389 3.1860 -0.6322
27 3 2 0.0000 1.8583 4.6871 -0.3700
28 3 2 0.0000 1.2349 4.8937 1.0075
29 3 2 0.0000 -0.2794 4.9940 0.8480
30 3 1 0.0000 -0.6354 5.8068 -0.3935
31 4 1 0.0000 -0.4243 7.4704 0.7690
32 4 2 0.0000 0.7631 6.7956 1.4498
33 4 2 0.0000 0.3559 6.3813 2.8609
34 4 2 0.0000 1.4168 5.4883 3.4979
35 4 2 0.0000 0.7930 4.9413 4.7787
36 4 2 0.0000 1.1147 5.9094 5.9136
37 4 2 0.0000 0.5136 7.2620 5.5423
38 4 2 0.0000 1.3189 7.8339 4.3791
39 4 2 0.0000 2.6769 7.1392 4.3371
40 4 1 0.0000 3.7814 8.1394 4.0082
41 5 1 0.0000 3.2434 4.8770 3.9826
42 5 2 0.0000 3.0358 3.8486 2.8744
43 5 2 0.0000 3.0643 2.4500 3.4841
44 5 2 0.0000 3.1081 1.3790 2.3979
45 5 2 0.0000 3.1071 2.1276 1.0681
46 5 2 0.0000 4.1893 3.2018 1.1279
47 5 2 0.0000 5.5390 2.4899 1.1072
48 5 2 0.0000 5.3165 1.0420 1.5347
49 5 2 0.0000 5.2758 0.1652 0.2864
50 5 1 0.0000 5.3030 -1.3122 0.6674

Bonds

1 1 1 2
2 2 3 4
3 2 5 6
4 2 7 8
5 1 9 10
6 2 2 3
7 2 4 5
8 2 6 7
9 2 8 9
10 1 11 12
11 2 13 14
12 2 15 16
13 2 17 18
14 1 19 20
15 2 12 13
16 2 14 15
17 2 16 17
18 2 18 19
19 1 21 22
20 2 23 24
21 2 25 26
22 2 27 28
23 1 29 30
24 2 22 23
25 2 24 25
26 2 26 27
27 2 28 29
28 1 31 32
29 2 33 34
30 2 35 36
31 2 37 38
32 1 39 40
33 2 32 33
34 2 34 35
35 2 36 37
36 2 38 39
37 1 41 42
38 2 43 44
39 2 45 46
40 2 47 48
41 1 49 50
42 2 42 43
43 2 44 45
44 2 46 47
45 2 48 49

Angles

1 1 1 2 3
2 2 4 3 2
3 2 3 4 5
4 2 6 5 4
5 2 5 6 7
6 2 8 7 6
7 2 7 8 9
8 1 10 9 8
9 1 11 12 13
10 2 14 13 12
11 2 13 14 15
12 2 16 15 14
13 2 15 16 17
14 2 18 17 16
15 2 17 18 19
16 1 20 19 18
17 1 21 22 23
18 2 24 23 22
19 2 23 24 25
20 2 26 25 24
21 2 25 26 27
22 2 28 27 26
23 2 27 28 29
24 1 30 29 28
25 1 31 32 33
26 2 34 33 32
27 2 33 34 35
28 2 36 35 34
29 2 35 36 37
30 2 38 37 36
31 2 37 38 39
32 1 40 39 38
33 1 41 42 43
34 2 44 43 42
35 2 43 44 45
36 2 46 45 44
37 2 45 46 47
38 2 48 47 46
39 2 47 48 49
40 1 50 49 48

Dihedrals

1 1 1 2 3 4
2 1 2 3 4 5
3 1 3 4 5 6
4 1 4 5 6 7
5 1 5 6 7 8
6 1 6 7 8 9
7 1 7 8 9 10
8 1 11 12 13 14
9 1 12 13 14 15
10 1 13 14 15 16
11 1 14 15 16 17
12 1 15 16 17 18
13 1 16 17 18 19
14 1 17 18 19 20
15 1 21 22 23 24
16 1 22 23 24 25
17 1 23 24 25 26
18 1 24 25 26 27
19 1 25 26 27 28
20 1 26 27 28 29
21 1 27 28 29 30
22 1 31 32 33 34
23 1 32 33 34 35
24 1 33 34 35 36
25 1 34 35 36 37
26 1 35 36 37 38
27 1 36 37 38 39
28 1 37 38 39 40
29 1 41 42 43 44
30 1 42 43 44 45
31 1 43 44 45 46
32 1 44 45 46 47
33 1 45 46 47 48
34 1 46 47 48 49
35 1 47 48 49 50

