LAMMPS Description # full

50 atoms
45 bonds
40 angles
35 dihedrals
0 impropers

2 atom types
2 bond types
2 angle types
1 dihedral types
0 improper types

0 7.6878 xlo xhi
0 7.6878 ylo yhi
0 7.6878 zlo zhi

Masses

1 15.0350 # CH3 n-Butane C 83 #
2 14.0270 # CH2 n-Butane C 86 #

Pair Coeffs

1 0.1750 3.9050
2 0.1180 3.9050

Bond Coeffs

1 260.0000 1.5260
2 260.0000 1.5260

Angle Coeffs

1 63.0000 112.4000
2 63.0000 112.4000

Dihedral Coeffs

1 0.0000 0.0000 4.0000 0.0000

Atoms

1 1 1 0.0000 5.3654 -0.1816 8.2461
2 1 2 0.0000 4.8538 -0.3186 6.8149
3 1 2 0.0000 4.2087 0.9977 6.3907
4 1 2 0.0000 3.0910 0.7598 5.3793
5 1 2 0.0000 3.4944 1.5202 4.1193
6 1 2 0.0000 4.6964 2.3969 4.4590
7 1 2 0.0000 5.7614 2.1410 3.3964
8 1 2 0.0000 6.3081 0.7316 3.6049
9 1 2 0.0000 6.4503 0.4798 5.1032
10 1 1 0.0000 6.0051 1.7042 5.8977
11 2 1 0.0000 1.3738 4.0156 3.2782
12 2 2 0.0000 0.8374 5.1905 2.4654
13 2 2 0.0000 -0.5202 5.6033 3.0268
14 2 2 0.0000 -1.6516 4.8435 2.3403
15 2 2 0.0000 -2.7637 4.7167 3.3775
16 2 2 0.0000 -2.6867 5.9258 4.3054
17 2 2 0.0000 -3.7506 6.9195 3.8477
18 2 2 0.0000 -3.5951 7.1190 2.3429
19 2 2 0.0000 -4.2558 5.9462 1.6240
20 2 1 0.0000 -4.7920 6.3838 0.2640
21 3 1 0.0000 4.1478 4.6041 5.8071
22 3 2 0.0000 4.5622 3.2131 6.2783
23 3 2 0.0000 4.1044 3.0214 7.7213
24 3 2 0.0000 5.2467 2.5128 8.5961
25 3 2 0.0000 4.6942 1.3073 9.3512
26 3 2 0.0000 3.1862 1.2556 9.1233
27 3 2 0.0000 2.5711 2.4306 9.8781
28 3 2 0.0000 3.3430 3.6915 9.5001
29 3 2 0.0000 2.6784 4.3235 8.2804
30 3 1 0.0000 1.1589 4.2408 8.3942
31 4 1 0.0000 0.6370 -0.6023 4.9373
32 4 2 0.0000 1.8219 -1.0916 4.1097
33 4 2 0.0000 2.1980 -0.0142 3.0966
34 4 2 0.0000 1.2845 1.2015 3.2243
35 4 2 0.0000 0.1082 0.9447 2.2866
36 4 2 0.0000 0.5355 -0.1075 1.2673
37 4 2 0.0000 0.1835 0.4301 -0.1168
38 4 2 0.0000 -0.7936 -0.5445 -0.7682
39 4 2 0.0000 -1.0571 -1.6928 0.2016
40 4 1 0.0000 -2.3536 -2.4125 -0.1586
41 5 1 0.0000 -0.6210 3.4875 1.0975
42 5 2 0.0000 0.0148 2.5549 0.0705
43 5 2 0.0000 1.3584 2.0692 0.6066
44 5 2 0.0000 2.2470 1.5568 -0.5233
45 5 2 0.0000 1.5497 1.9551 -1.8209
46 5 2 0.0000 2.2303 3.2106 -2.3587
47 5 2 0.0000 1.8705 4.3603 -1.4220
48 5 2 0.0000 0.3572 4.3543 -1.2256
49 5 2 0.0000 -0.3126 4.2885 -2.5952
50 5 1 0.0000 -0.3117 2.8573 -3.1247

Bonds

1 1 1 2
2 2 3 4
3 2 5 6
4 2 7 8
5 1 9 10
6 2 2 3
7 2 4 5
8 2 6 7
9 2 8 9
10 1 11 12
11 2 13 14
12 2 15 16
13 2 17 18
14 1 19 20
15 2 12 13
16 2 14 15
17 2 16 17
18 2 18 19
19 1 21 22
20 2 23 24
21 2 25 26
22 2 27 28
23 1 29 30
24 2 22 23
25 2 24 25
26 2 26 27
27 2 28 29
28 1 31 32
29 2 33 34
30 2 35 36
31 2 37 38
32 1 39 40
33 2 32 33
34 2 34 35
35 2 36 37
36 2 38 39
37 1 41 42
38 2 43 44
39 2 45 46
40 2 47 48
41 1 49 50
42 2 42 43
43 2 44 45
44 2 46 47
45 2 48 49

Angles

1 1 1 2 3
2 2 4 3 2
3 2 3 4 5
4 2 6 5 4
5 2 5 6 7
6 2 8 7 6
7 2 7 8 9
8 1 10 9 8
9 1 11 12 13
10 2 14 13 12
11 2 13 14 15
12 2 16 15 14
13 2 15 16 17
14 2 18 17 16
15 2 17 18 19
16 1 20 19 18
17 1 21 22 23
18 2 24 23 22
19 2 23 24 25
20 2 26 25 24
21 2 25 26 27
22 2 28 27 26
23 2 27 28 29
24 1 30 29 28
25 1 31 32 33
26 2 34 33 32
27 2 33 34 35
28 2 36 35 34
29 2 35 36 37
30 2 38 37 36
31 2 37 38 39
32 1 40 39 38
33 1 41 42 43
34 2 44 43 42
35 2 43 44 45
36 2 46 45 44
37 2 45 46 47
38 2 48 47 46
39 2 47 48 49
40 1 50 49 48

Dihedrals

1 1 1 2 3 4
2 1 2 3 4 5
3 1 3 4 5 6
4 1 4 5 6 7
5 1 5 6 7 8
6 1 6 7 8 9
7 1 7 8 9 10
8 1 11 12 13 14
9 1 12 13 14 15
10 1 13 14 15 16
11 1 14 15 16 17
12 1 15 16 17 18
13 1 16 17 18 19
14 1 17 18 19 20
15 1 21 22 23 24
16 1 22 23 24 25
17 1 23 24 25 26
18 1 24 25 26 27
19 1 25 26 27 28
20 1 26 27 28 29
21 1 27 28 29 30
22 1 31 32 33 34
23 1 32 33 34 35
24 1 33 34 35 36
25 1 34 35 36 37
26 1 35 36 37 38
27 1 36 37 38 39
28 1 37 38 39 40
29 1 41 42 43 44
30 1 42 43 44 45
31 1 43 44 45 46
32 1 44 45 46 47
33 1 45 46 47 48
34 1 46 47 48 49
35 1 47 48 49 50

