LAMMPS Description # full

2400 atoms
2300 bonds
2200 angles
3300 dihedrals
700 impropers

7 atom types
6 bond types
6 angle types
4 dihedral types
2 improper types

-3.90 32.49 xlo xhi # 0.00 36.39
-1.57 34.82 ylo yhi # 0.00 36.39
-3.07 33.32 zlo zhi # 0.00 36.39

Masses

1 15.035 # CH3 Isobutane C 84
2 14.027 # CH2 n-Butane C 86
3 13.019 # CH Isobutane C 88
4 12.011 # C Carboxylic Acid C 133
5 15.999 # =O Carboxylic Acid O 134
6 15.999 # -O- Carboxylic Acid O 135
7 1.008 # H Carboxylic Acid H 136

Pair Coeffs

1 0.1600 3.9100
2 0.1180 3.9050
3 0.0800 3.8500
4 0.1050 3.7500
5 0.2100 2.9600
6 0.1700 3.0000
7 0.0000 0.0000

Bond Coeffs

1  570.0 1.229
2  317.0 1.522
3  553.0 0.945
4  450.0 1.364
5  260.0 1.526
6  260.0 1.526

Angle Coeffs

1 70.0 117.0
2 80.0 126.0
3 35.0 113.0
4 63.0 112.4
5 63.0 112.4
6 63.0 112.4

Dihedral Coeffs

1  0.0 0.0 0.0 0.0
2  0.0 0.0 4.0 0.0
3  0.0 0.0 4.0 0.0
4  0.0 1.8 0.0 0.0

Improper Coeffs

1 14.0 -1 3
2 10.5 -1 2

Atoms

1 1 1 0.0000 24.124 5.208 2.142
2 1 3 0.0800 25.173 6.313 2.238
3 1 4 0.5500 24.644 7.388 3.176
4 1 5 -0.5000 24.444 7.228 4.378
5 1 6 -0.5800 24.360 8.630 2.688
6 1 7 0.4500 23.679 9.148 3.088
7 1 2 0.0000 25.550 6.856 0.863
8 1 3 0.0800 24.256 7.239 0.148
9 1 4 0.5500 24.169 6.756 -1.293
10 1 5 -0.5000 25.023 5.964 -1.684
11 1 6 -0.5800 23.211 7.132 -2.189
12 1 7 0.4500 22.940 6.542 -2.875
13 1 2 0.0000 23.800 8.677 0.378
14 1 3 0.0800 24.898 9.736 0.391
15 1 4 0.5500 24.813 10.802 -0.692
16 1 5 -0.5000 25.649 10.799 -1.594
17 1 6 -0.5800 23.860 11.777 -0.733
18 1 7 0.4500 23.368 12.022 0.036
19 1 2 0.0000 26.291 9.338 0.869
20 1 2 0.0800 26.487 9.033 2.351
21 1 4 0.5500 26.746 7.575 2.702
22 1 5 -0.5000 27.323 6.895 1.856
23 1 6 -0.5800 26.402 6.947 3.863
24 1 7 0.4500 26.915 6.869 4.652
25 2 1 0.0000 -3.742 6.405 24.399
26 2 3 0.0800 -3.681 7.590 23.439
27 2 4 0.5500 -3.244 7.073 22.076
28 2 5 -0.5000 -2.920 5.911 21.841
29 2 6 -0.5800 -3.194 7.928 21.013
30 2 7 0.4500 -2.377 8.073 20.563
31 2 2 0.0000 -2.781 8.702 23.969
32 2 3 0.0800 -3.023 9.941 23.111
33 2 4 0.5500 -4.476 10.393 23.057
34 2 5 -0.5000 -5.137 10.080 22.070
35 2 6 -0.5800 -5.106 11.120 24.024
36 2 7 0.4500 -4.983 12.056 24.075
37 2 2 0.0000 -2.296 9.942 21.770
38 2 3 0.0800 -2.517 11.167 20.886
39 2 4 0.5500 -1.932 12.475 21.397
40 2 5 -0.5000 -0.824 12.461 21.928
41 2 6 -0.5800 -2.560 13.682 21.304
42 2 7 0.4500 -3.046 13.931 20.532
43 2 2 0.0000 -3.799 11.251 20.063
44 2 2 0.0800 -4.500 12.601 19.952
45 2 4 0.5500 -5.966 12.559 19.548
46 2 5 -0.5000 -6.445 13.594 19.089
47 2 6 -0.5800 -6.804 11.486 19.644
48 2 7 0.4500 -7.153 11.094 20.429
49 3 1 0.0000 27.223 20.080 0.783
50 3 3 0.0800 28.278 18.999 0.566
51 3 4 0.5500 29.633 19.576 0.948
52 3 5 -0.5000 30.707 18.998 0.794
53 3 6 -0.5800 29.705 20.820 1.504
54 3 7 0.4500 30.075 21.536 1.011
55 3 2 0.0000 28.245 18.455 -0.859
56 3 3 0.0800 26.790 18.143 -1.200
57 3 4 0.5500 25.888 19.367 -1.278
58 3 5 -0.5000 24.930 19.421 -0.510
59 3 6 -0.5800 26.059 20.413 -2.137
60 3 7 0.4500 25.546 20.470 -2.929
61 3 2 0.0000 26.200 16.950 -0.453
62 3 3 0.0800 25.143 17.273 0.599
63 3 4 0.5500 25.648 17.926 1.878
64 3 5 -0.5000 25.366 19.103 2.093
65 3 6 -0.5800 26.402 17.287 2.817
66 3 7 0.4500 27.204 17.663 3.150
67 3 2 0.0000 23.927 16.358 0.717
68 3 2 0.0800 23.935 15.043 -0.055
69 3 4 0.5500 23.581 13.799 0.746
70 3 5 -0.5000 24.491 13.002 0.966
71 3 6 -0.5800 22.353 13.477 1.246
72 3 7 0.4500 22.041 12.625 1.510
73 4 1 0.0000 29.676 -2.689 7.867
74 4 3 0.0800 30.051 -1.437 8.655
75 4 4 0.5500 31.552 -1.228 8.526
76 4 5 -0.5000 32.080 -0.364 7.829
77 4 6 -0.5800 32.409 -2.035 9.215
78 4 7 0.4500 32.228 -2.959 9.290
79 4 2 0.0000 29.585 -1.520 10.105
80 4 3 0.0800 28.522 -2.613 10.186
81 4 4 0.5500 28.907 -3.802 11.055
82 4 5 -0.5000 29.660 -3.596 12.004
83 4 6 -0.5800 28.480 -5.083 10.863
84 4 7 0.4500 28.644 -5.744 11.519
85 4 2 0.0000 27.869 -2.970 8.853
86 4 3 0.0800 27.177 -4.328 8.787
87 4 4 0.5500 28.027 -5.489 8.290
88 4 5 -0.5000 29.196 -5.276 7.978
89 4 6 -0.5800 27.575 -6.770 8.166
90 4 7 0.4500 28.153 -7.512 8.267
91 4 2 0.0000 25.685 -4.373 8.472
92 4 2 0.0800 24.782 -3.317 9.103
93 4 4 0.5500 24.185 -3.673 10.456
94 4 5 -0.5000 22.959 -3.704 10.531
95 4 6 -0.5800 24.876 -3.963 11.597
96 4 7 0.4500 25.802 -3.861 11.753
97 5 1 0.0000 16.721 5.839 24.041
98 5 3 0.0800 16.424 4.349 24.182
99 5 4 0.5500 16.474 3.994 25.661
100 5 5 -0.5000 15.893 3.038 26.169
101 5 6 -0.5800 17.204 4.766 26.517
102 5 7 0.4500 17.674 5.517 26.189
103 5 2 0.0000 17.368 3.501 23.335
104 5 3 0.0800 18.665 3.330 24.121
105 5 4 0.5500 19.100 1.883 24.307
106 5 5 -0.5000 19.735 1.602 25.321
107 5 6 -0.5800 18.840 0.868 23.433
108 5 7 0.4500 19.503 0.579 22.824
109 5 2 0.0000 18.778 4.205 25.366
110 5 3 0.0800 19.943 3.894 26.302
111 5 4 0.5500 20.536 5.079 27.050
112 5 5 -0.5000 20.057 6.196 26.865
113 5 6 -0.5800 21.579 4.988 27.924
114 5 7 0.4500 21.746 5.659 28.569
115 5 2 0.0000 20.891 2.756 25.934
116 5 2 0.0800 21.206 1.706 26.995
117 5 4 0.5500 20.155 0.624 27.192
118 5 5 -0.5000 19.277 0.847 28.023
119 5 6 -0.5800 20.088 -0.572 26.538
120 5 7 0.4500 19.527 -1.307 26.733
121 6 1 0.0000 -4.592 5.147 5.465
122 6 3 0.0800 -3.131 5.489 5.186
123 6 4 0.5500 -3.029 6.992 4.974
124 6 5 -0.5000 -2.007 7.581 4.629
125 6 6 -0.5800 -4.127 7.779 5.171
126 6 7 0.4500 -4.063 8.549 5.713
127 6 2 0.0000 -2.575 4.685 4.014
128 6 3 0.0800 -1.815 3.494 4.592
129 6 4 0.5500 -2.705 2.370 5.105
130 6 5 -0.5000 -3.463 1.829 4.302
131 6 6 -0.5800 -2.728 1.913 6.390
132 6 7 0.4500 -1.994 1.429 6.738
133 6 2 0.0000 -0.647 3.861 5.502
134 6 3 0.0800 0.056 5.180 5.194
135 6 4 0.5500 0.518 5.373 3.757
136 6 5 -0.5000 1.608 5.903 3.551
137 6 6 -0.5800 -0.204 4.994 2.664
138 6 7 0.4500 -1.113 5.232 2.562
139 6 2 0.0000 0.893 5.834 6.289
140 6 2 0.0800 2.371 5.469 6.384
141 6 4 0.5500 3.214 5.778 5.156
142 6 5 -0.5000 3.892 6.802 5.191
143 6 6 -0.5800 3.292 5.031 4.016
144 6 7 0.4500 3.330 5.340 3.124
145 7 1 0.0000 32.629 28.655 24.894
146 7 3 0.0800 33.129 27.669 23.841
147 7 4 0.5500 33.400 26.339 24.529
148 7 5 -0.5000 34.127 26.195 25.509
149 7 6 -0.5800 32.813 25.202 24.056
150 7 7 0.4500 32.612 25.123 23.136
151 7 2 0.0000 34.343 28.209 23.092
152 7 3 0.0800 34.156 27.878 21.613
153 7 4 0.5500 34.812 26.576 21.173
154 7 5 -0.5000 34.321 25.524 21.576
155 7 6 -0.5800 35.905 26.484 20.363
156 7 7 0.4500 36.343 25.655 20.244
157 7 2 0.0000 34.356 29.056 20.664
158 7 3 0.0800 35.788 29.566 20.518
159 7 4 0.5500 36.792 29.043 21.535
160 7 5 -0.5000 37.907 29.557 21.583
161 7 6 -0.5800 36.537 28.029 22.410
162 7 7 0.4500 36.841 28.058 23.305
163 7 2 0.0000 36.009 30.977 19.982
164 7 2 0.0800 34.785 31.812 19.617
165 7 4 0.5500 35.002 33.316 19.547
166 7 5 -0.5000 35.386 33.870 20.575
167 7 6 -0.5800 34.813 34.113 18.456
168 7 7 0.4500 35.329 34.142 17.665
169 8 1 0.0000 3.370 0.723 6.416
170 8 3 0.0800 2.895 2.126 6.048
171 8 4 0.5500 2.703 2.914 7.335
172 8 5 -0.5000 3.610 3.230 8.102
173 8 6 -0.5800 1.452 3.318 7.700
174 8 7 0.4500 1.330 3.808 8.499
175 8 2 0.0000 1.640 2.090 5.181
176 8 3 0.0800 1.966 1.275 3.932
177 8 4 0.5500 3.040 1.889 3.045
178 8 5 -0.5000 3.023 3.107 2.885
179 8 6 -0.5800 4.025 1.190 2.410
180 8 7 0.4500 4.555 0.570 2.888
181 8 2 0.0000 0.750 0.726 3.191
182 8 3 0.0800 0.904 0.554 1.682
183 8 4 0.5500 2.126 1.209 1.055
184 8 5 -0.5000 2.364 2.387 1.310
185 8 6 -0.5800 2.991 0.570 0.216
186 8 7 0.4500 3.259 -0.325 0.367
187 8 2 0.0000 -0.355 0.464 0.825
188 8 2 0.0800 -1.076 1.758 0.462
189 8 4 0.5500 -0.962 2.890 1.472
190 8 5 -0.5000 -0.447 3.935 1.080
191 8 6 -0.5800 -1.376 2.862 2.772
192 8 7 0.4500 -0.938 3.226 3.526
193 9 1 0.0000 18.347 26.831 29.415
194 9 3 0.0800 17.571 26.123 28.308
195 9 4 0.5500 18.094 26.621 26.969
196 9 5 -0.5000 19.056 27.374 26.832
197 9 6 -0.5800 17.482 26.227 25.815
198 9 7 0.4500 17.670 25.378 25.448
199 9 2 0.0000 16.065 26.310 28.464
200 9 3 0.0800 15.384 25.522 27.348
201 9 4 0.5500 15.502 26.157 25.969
202 9 5 -0.5000 16.118 27.217 25.878
203 9 6 -0.5800 14.977 25.641 24.821
204 9 7 0.4500 14.836 26.195 24.068
205 9 2 0.0000 13.999 24.985 27.696
206 9 3 0.0800 13.103 24.621 26.516
207 9 4 0.5500 11.624 24.944 26.673
208 9 5 -0.5000 11.010 25.390 25.706
209 9 6 -0.5800 10.922 24.770 27.828
210 9 7 0.4500 10.854 25.455 28.476
211 9 2 0.0000 13.464 23.400 25.674
212 9 2 0.0800 12.376 22.370 25.391
213 9 4 0.5500 12.398 21.121 26.260
214 9 5 -0.5000 11.489 20.998 27.078
215 9 6 -0.5800 13.328 20.123 26.223
216 9 7 0.4500 13.831 19.830 25.479
217 10 1 0.0000 28.421 13.476 3.067
218 10 3 0.0800 28.852 12.206 3.793
219 10 4 0.5500 30.354 12.280 4.026
220 10 5 -0.5000 31.081 13.180 3.613
221 10 6 -0.5800 30.976 11.297 4.740
222 10 7 0.4500 31.192 10.478 4.323
223 10 2 0.0000 28.429 10.950 3.037
224 10 3 0.0800 28.701 11.191 1.555
225 10 4 0.5500 28.417 9.992 0.661
226 10 5 -0.5000 28.247 10.200 -0.539
227 10 6 -0.5800 28.336 8.698 1.087
228 10 7 0.4500 28.461 8.488 2.000
229 10 2 0.0000 30.003 11.928 1.255
230 10 3 0.0800 30.794 11.430 0.047
231 10 4 0.5500 31.766 12.424 -0.572
232 10 5 -0.5000 31.730 13.596 -0.204
233 10 6 -0.5800 32.689 12.100 -1.522
234 10 7 0.4500 32.435 11.743 -2.360
235 10 2 0.0000 30.137 10.421 -0.890
236 10 2 0.0800 30.992 9.285 -1.442
237 10 4 0.5500 31.118 9.222 -2.957
238 10 5 -0.5000 31.778 10.107 -3.496
239 10 6 -0.5800 30.570 8.280 -3.778
240 10 7 0.4500 30.269 7.415 -3.546
241 11 1 0.0000 3.244 21.490 15.786
242 11 3 0.0800 2.339 21.635 14.566
243 11 4 0.5500 3.219 21.898 13.353
244 11 5 -0.5000 2.980 21.496 12.216
245 11 6 -0.5800 4.364 22.628 13.493
246 11 7 0.4500 4.373 23.540 13.250
247 11 2 0.0000 1.277 22.710 14.774
248 11 3 0.0800 1.991 23.984 15.218
249 11 4 0.5500 3.492 23.825 15.418
250 11 5 -0.5000 4.238 24.377 14.614
251 11 6 -0.5800 4.077 23.115 16.426
252 11 7 0.4500 3.921 23.350 17.329
253 11 2 0.0000 1.273 24.773 16.309
254 11 3 0.0800 0.468 25.983 15.843
255 11 4 0.5500 -0.895 26.171 16.494
256 11 5 -0.5000 -1.013 25.951 17.697
257 11 6 -0.5800 -2.013 26.574 15.825
258 11 7 0.4500 -2.736 25.986 15.666
259 11 2 0.0000 0.621 26.450 14.399
260 11 2 0.0800 2.005 26.879 13.921
261 11 4 0.5500 3.159 26.578 14.867
262 11 5 -0.5000 2.967 25.713 15.719
263 11 6 -0.5800 4.386 27.173 14.865
264 11 7 0.4500 4.741 27.770 15.507
265 12 1 0.0000 22.170 15.542 12.207
266 12 3 0.0800 21.352 15.625 13.493
267 12 4 0.5500 20.182 14.659 13.373
268 12 5 -0.5000 19.059 14.968 12.981
269 12 6 -0.5800 20.350 13.349 13.716
270 12 7 0.4500 19.932 13.008 14.491
271 12 2 0.0000 20.914 17.055 13.794
272 12 3 0.0800 21.407 17.938 12.651
273 12 4 0.5500 20.749 17.653 11.308
274 12 5 -0.5000 21.460 17.677 10.306
275 12 6 -0.5800 19.427 17.369 11.128
276 12 7 0.4500 19.161 16.706 10.508
277 12 2 0.0000 22.919 18.136 12.602
278 12 3 0.0800 23.618 17.662 11.330
279 12 4 0.5500 24.150 16.236 11.350
280 12 5 -0.5000 24.031 15.546 10.339
281 12 6 -0.5800 24.758 15.661 12.426
282 12 7 0.4500 24.706 14.731 12.588
283 12 2 0.0000 24.389 18.682 10.498
284 12 2 0.0800 25.215 19.735 11.229
285 12 4 0.5500 26.452 20.237 10.497
286 12 5 -0.5000 26.419 21.392 10.080
287 12 6 -0.5800 27.595 19.531 10.259
288 12 7 0.4500 28.486 19.842 10.305
289 13 1 0.0000 2.702 0.311 28.030
290 13 3 0.0800 2.667 -0.358 26.659
291 13 4 0.5500 1.234 -0.785 26.377
292 13 5 -0.5000 0.556 -1.490 27.122
293 13 6 -0.5800 0.621 -0.379 25.228
294 13 7 0.4500 -0.315 -0.254 25.212
295 13 2 0.0000 3.660 -1.512 26.566
296 13 3 0.0800 4.918 -0.983 25.882
297 13 4 0.5500 5.599 -1.984 24.959
298 13 5 -0.5000 4.902 -2.560 24.126
299 13 6 -0.5800 6.927 -2.294 24.982
300 13 7 0.4500 7.208 -3.181 25.148
301 13 2 0.0000 5.859 -0.198 26.791
302 13 3 0.0800 7.328 -0.613 26.757
303 13 4 0.5500 8.125 -0.358 28.028
304 13 5 -0.5000 8.386 0.802 28.341
305 13 6 -0.5800 8.577 -1.341 28.858
306 13 7 0.4500 8.057 -1.658 29.582
307 13 2 0.0000 8.080 -0.526 25.433
308 13 2 0.0800 9.580 -0.251 25.471
309 13 4 0.5500 10.001 1.056 26.126
310 13 5 -0.5000 10.777 1.769 25.494
311 13 6 -0.5800 9.602 1.518 27.347
312 13 7 0.4500 9.506 2.417 27.622
313 14 1 0.0000 3.045 35.217 16.950
314 14 3 0.0800 2.810 34.971 15.462
315 14 4 0.5500 3.806 35.815 14.680
316 14 5 -0.5000 3.521 36.502 13.701
317 14 6 -0.5800 5.116 35.839 15.059
318 14 7 0.4500 5.737 36.361 14.575
319 14 2 0.0000 1.362 35.241 15.066
320 14 3 0.0800 1.355 35.656 13.597
321 14 4 0.5500 1.164 37.149 13.367
322 14 5 -0.5000 1.225 37.891 14.345
323 14 6 -0.5800 0.931 37.731 12.156
324 14 7 0.4500 1.099 38.653 12.029
325 14 2 0.0000 0.538 34.750 12.681
326 14 3 0.0800 1.334 33.893 11.700
327 14 4 0.5500 2.184 32.789 12.313
328 14 5 -0.5000 2.334 32.765 13.532
329 14 6 -0.5800 2.802 31.810 11.592
330 14 7 0.4500 3.337 32.011 10.839
331 14 2 0.0000 1.848 34.538 10.417
332 14 2 0.0800 2.184 36.026 10.441
333 14 4 0.5500 3.615 36.380 10.817
334 14 5 -0.5000 4.209 37.157 10.073
335 14 6 -0.5800 4.306 35.920 11.900
336 14 7 0.4500 4.005 35.324 12.568
337 15 1 0.0000 34.604 14.089 14.787
338 15 3 0.0800 33.636 13.622 13.704
339 15 4 0.5500 32.691 12.602 14.320
340 15 5 -0.5000 31.574 12.863 14.762
341 15 6 -0.5800 33.071 11.294 14.408
342 15 7 0.4500 33.752 11.041 15.011
343 15 2 0.0000 34.374 13.085 12.480
344 15 3 0.0800 33.657 13.615 11.241
345 15 4 0.5500 32.225 13.123 11.085
346 15 5 -0.5000 31.352 13.962 10.873
347 15 6 -0.5800 31.831 11.819 11.162
348 15 7 0.4500 32.180 11.179 10.561
349 15 2 0.0000 34.491 13.596 9.963
350 15 3 0.0800 34.403 12.324 9.123
351 15 4 0.5500 33.629 12.436 7.817
352 15 5 -0.5000 33.452 13.550 7.328
353 15 6 -0.5800 33.112 11.372 7.140
354 15 7 0.4500 32.889 11.427 6.223
355 15 2 0.0000 34.370 10.977 9.839
356 15 2 0.0800 33.746 10.913 11.229
357 15 4 0.5500 33.096 9.590 11.607
358 15 5 -0.5000 32.960 8.762 10.708
359 15 6 -0.5800 32.649 9.229 12.844
360 15 7 0.4500 32.486 8.357 13.168
361 16 1 0.0000 2.634 30.814 -0.536
362 16 3 0.0800 3.461 30.988 -1.807
363 16 4 0.5500 4.895 31.294 -1.400
364 16 5 -0.5000 5.216 32.085 -0.516
365 16 6 -0.5800 5.926 30.668 -2.038
366 16 7 0.4500 6.401 31.118 -2.718
367 16 2 0.0000 2.865 32.049 -2.728
368 16 3 0.0800 2.656 33.314 -1.901
369 16 4 0.5500 3.213 33.238 -0.486
370 16 5 -0.5000 2.425 33.002 0.427
371 16 6 -0.5800 4.524 33.411 -0.150
372 16 7 0.4500 4.798 33.349 0.753
373 16 2 0.0000 1.266 33.932 -2.016
374 16 3 0.0800 1.080 34.966 -3.124
375 16 4 0.5500 2.128 34.961 -4.227
376 16 5 -0.5000 3.267 35.343 -3.964
377 16 6 -0.5800 1.890 34.555 -5.507
378 16 7 0.4500 1.014 34.382 -5.818
379 16 2 0.0000 0.446 36.308 -2.771
380 16 2 0.0800 1.258 37.577 -3.012
381 16 4 0.5500 2.577 37.676 -2.261
382 16 5 -0.5000 2.707 38.624 -1.490
383 16 6 -0.5800 3.633 36.816 -2.357
384 16 7 0.4500 4.265 36.601 -1.688
385 17 1 0.0000 24.115 32.848 -2.336
386 17 3 0.0800 23.249 31.769 -1.691
387 17 4 0.5500 21.790 32.117 -1.944
388 17 5 -0.5000 21.402 32.929 -2.781
389 17 6 -0.5800 20.813 31.507 -1.213
390 17 7 0.4500 20.069 32.006 -0.914
391 17 2 0.0000 23.571 31.597 -0.209
392 17 3 0.0800 23.023 32.817 0.526
393 17 4 0.5500 23.678 34.134 0.131
394 17 5 -0.5000 24.563 34.100 -0.721
395 17 6 -0.5800 23.358 35.355 0.649
396 17 7 0.4500 23.583 36.146 0.183
397 17 2 0.0000 22.816 32.622 2.025
398 17 3 0.0800 23.771 33.384 2.940
399 17 4 0.5500 23.250 34.695 3.509
400 17 5 -0.5000 22.080 34.757 3.879
401 17 6 -0.5800 24.003 35.825 3.640
402 17 7 0.4500 24.498 36.004 4.426
403 17 2 0.0000 25.270 33.285 2.674
404 17 2 0.0800 25.830 33.966 1.428
405 17 4 0.5500 27.276 33.642 1.086
406 17 5 -0.5000 28.123 34.471 1.411
407 17 6 -0.5800 27.729 32.521 0.452
408 17 7 0.4500 28.001 31.705 0.844
409 18 1 0.0000 8.124 20.512 21.078
410 18 3 0.0800 6.793 19.811 20.822
411 18 4 0.5500 6.870 19.129 19.464
412 18 5 -0.5000 7.483 18.088 19.239
413 18 6 -0.5800 6.228 19.680 18.393
414 18 7 0.4500 6.573 19.558 17.523
415 18 2 0.0000 5.615 20.774 20.937
416 18 3 0.0800 5.174 21.135 19.521
417 18 4 0.5500 6.290 21.669 18.633
418 18 5 -0.5000 6.366 22.886 18.480
419 18 6 -0.5800 7.216 20.900 17.991
420 18 7 0.4500 7.693 21.244 17.251
421 18 2 0.0000 3.857 21.901 19.437
422 18 3 0.0800 2.825 21.356 18.454
423 18 4 0.5500 2.181 22.375 17.525
424 18 5 -0.5000 1.643 21.979 16.493
425 18 6 -0.5800 2.157 23.718 17.761
426 18 7 0.4500 2.765 24.307 17.340
427 18 2 0.0000 1.973 20.162 18.877
428 18 2 0.0800 2.587 18.769 18.787
429 18 4 0.5500 2.598 18.135 17.403
430 18 5 -0.5000 3.396 17.217 17.220
431 18 6 -0.5800 1.811 18.482 16.345
432 18 7 0.4500 1.502 17.925 15.647
433 19 1 0.0000 8.799 7.355 4.709
434 19 3 0.0800 9.019 8.847 4.944
435 19 4 0.5500 9.347 9.051 6.415
436 19 5 -0.5000 8.849 9.921 7.127
437 19 6 -0.5800 10.253 8.234 7.025
438 19 7 0.4500 11.141 8.194 6.706
439 19 2 0.0000 7.824 9.675 4.481
440 19 3 0.0800 7.635 10.812 5.481
441 19 4 0.5500 6.834 10.433 6.719
442 19 5 -0.5000 6.028 11.254 7.152
443 19 6 -0.5800 6.940 9.249 7.389
444 19 7 0.4500 6.915 9.231 8.333
445 19 2 0.0000 7.269 12.157 4.860
446 19 3 0.0800 8.277 12.737 3.871
447 19 4 0.5500 9.550 11.930 3.662
448 19 5 -0.5000 9.720 11.359 2.586
449 19 6 -0.5800 10.532 11.793 4.598
450 19 7 0.4500 10.332 11.676 5.514
451 19 2 0.0000 8.384 14.253 3.742
452 19 2 0.0800 8.797 14.837 2.395
453 19 4 0.5500 8.659 16.345 2.253
454 19 5 -0.5000 9.152 17.034 3.144
455 19 6 -0.5800 8.044 17.012 1.234
456 19 7 0.4500 8.335 17.094 0.338
457 20 1 0.0000 25.710 20.055 13.459
458 20 3 0.0800 26.212 18.804 12.743
459 20 4 0.5500 26.001 17.613 13.666
460 20 5 -0.5000 25.715 16.479 13.288
461 20 6 -0.5800 26.129 17.773 15.015
462 20 7 0.4500 26.927 17.510 15.447
463 20 2 0.0000 27.661 18.956 12.290
464 20 3 0.0800 28.204 17.557 12.006
465 20 4 0.5500 27.394 16.764 10.990
466 20 5 -0.5000 26.365 16.217 11.380
467 20 6 -0.5800 27.721 16.612 9.674
468 20 7 0.4500 27.299 17.140 9.013
469 20 2 0.0000 28.634 16.775 13.244
470 20 3 0.0800 30.098 16.346 13.292
471 20 4 0.5500 30.732 16.281 14.674
472 20 5 -0.5000 31.496 15.353 14.932
473 20 6 -0.5800 30.508 17.193 15.663
474 20 7 0.4500 31.165 17.392 16.313
475 20 2 0.0000 31.008 16.722 12.126
476 20 2 0.0800 30.948 15.873 10.860
477 20 4 0.5500 32.238 15.781 10.058
478 20 5 -0.5000 32.267 14.958 9.146
479 20 6 -0.5800 33.367 16.522 10.250
480 20 7 0.4500 33.475 17.277 10.808
481 21 1 0.0000 4.526 -2.225 11.967
482 21 3 0.0800 5.263 -3.287 12.777
483 21 4 0.5500 6.758 -3.070 12.593
484 21 5 -0.5000 7.586 -3.105 13.501
485 21 6 -0.5800 7.256 -2.817 11.348
486 21 7 0.4500 7.529 -3.533 10.796
487 21 2 0.0000 4.816 -4.697 12.402
488 21 3 0.0800 5.166 -4.916 10.933
489 21 4 0.5500 4.288 -5.938 10.224
490 21 5 -0.5000 3.267 -5.531 9.674
491 21 6 -0.5800 4.547 -7.275 10.149
492 21 7 0.4500 4.345 -7.842 10.878
493 21 2 0.0000 6.659 -5.032 10.641
494 21 3 0.0800 7.115 -4.551 9.266
495 21 4 0.5500 6.539 -5.297 8.071
496 21 5 -0.5000 7.032 -6.377 7.754
497 21 6 -0.5800 5.498 -4.844 7.316
498 21 7 0.4500 4.601 -4.939 7.599
499 21 2 0.0000 8.523 -3.983 9.121
500 21 2 0.0800 8.896 -2.755 9.946
501 21 4 0.5500 10.059 -2.929 10.911
502 21 5 -0.5000 10.254 -2.020 11.715
503 21 6 -0.5800 10.910 -3.994 10.974
504 21 7 0.4500 11.058 -4.572 11.706
505 22 1 0.0000 11.463 32.479 15.844
506 22 3 0.0800 12.094 31.684 16.984
507 22 4 0.5500 13.225 32.515 17.572
508 22 5 -0.5000 13.431 32.663 18.774
509 22 6 -0.5800 14.094 33.158 16.739
510 22 7 0.4500 13.912 33.204 15.814
511 22 2 0.0000 12.549 30.301 16.525
512 22 3 0.0800 11.329 29.578 15.962
513 22 4 0.5500 10.067 29.729 16.799
514 22 5 -0.5000 10.197 30.060 17.976
515 22 6 -0.5800 8.796 29.527 16.346
516 22 7 0.4500 8.607 28.810 15.759
517 22 2 0.0000 11.601 28.166 15.451
518 22 3 0.0800 11.010 27.027 16.277
519 22 4 0.5500 11.124 27.167 17.788
520 22 5 -0.5000 11.499 28.239 18.257
521 22 6 -0.5800 10.833 26.170 18.672
522 22 7 0.4500 11.509 25.736 19.171
523 22 2 0.0000 11.046 25.614 15.703
524 22 2 0.0800 9.778 25.065 15.055
525 22 4 0.5500 9.794 23.582 14.714
526 22 5 -0.5000 10.885 23.088 14.439
527 22 6 -0.5800 8.717 22.745 14.684
528 22 7 0.4500 8.672 21.850 14.984
529 23 1 0.0000 21.992 3.989 23.639
530 23 3 0.0800 21.478 4.228 22.222
531 23 4 0.5500 21.380 5.731 22.001
532 23 5 -0.5000 20.422 6.424 22.336
533 23 6 -0.5800 22.406 6.392 21.392
534 23 7 0.4500 23.292 6.268 21.694
535 23 2 0.0000 20.160 3.503 21.969
536 23 3 0.0800 19.074 4.563 21.808
537 23 4 0.5500 19.228 5.438 20.572
538 23 5 -0.5000 20.366 5.644 20.155
539 23 6 -0.5800 18.199 6.013 19.885
540 23 7 0.4500 17.785 5.554 19.171
541 23 2 0.0000 18.715 5.311 23.089
542 23 3 0.0800 18.464 6.810 22.944
543 23 4 0.5500 17.365 7.214 21.973
544 23 5 -0.5000 17.542 8.194 21.252
545 23 6 -0.5800 16.178 6.555 21.844
546 23 7 0.4500 15.421 6.789 22.361
547 23 2 0.0000 19.644 7.765 23.099
548 23 2 0.0800 20.887 7.267 23.829
549 23 4 0.5500 20.747 5.932 24.546
550 23 5 -0.5000 21.286 5.833 25.646
551 23 6 -0.5800 20.083 4.831 24.089
552 23 7 0.4500 19.986 3.995 24.518
553 24 1 0.0000 10.488 22.531 34.173
554 24 3 0.0800 10.495 22.542 32.648
555 24 4 0.5500 11.648 21.671 32.172
556 24 5 -0.5000 12.818 21.809 32.523
557 24 6 -0.5800 11.409 20.653 31.295
558 24 7 0.4500 12.118 20.297 30.783
559 24 2 0.0000 10.555 23.962 32.092
560 24 3 0.0800 12.016 24.404 32.114
561 24 4 0.5500 12.237 25.860 31.729
562 24 5 -0.5000 11.349 26.426 31.095
563 24 6 -0.5800 13.348 26.591 32.033
564 24 7 0.4500 13.555 27.373 31.544
565 24 2 0.0000 12.993 23.413 31.489
566 24 3 0.0800 12.761 23.078 30.018
567 24 4 0.5500 14.004 23.002 29.143
568 24 5 -0.5000 14.262 21.946 28.571
569 24 6 -0.5800 14.866 24.041 28.947
570 24 7 0.4500 14.574 24.940 28.973
571 24 2 0.0000 11.471 23.554 29.356
572 24 2 0.0800 10.586 24.534 30.119
573 24 4 0.5500 9.112 24.165 30.213
574 24 5 -0.5000 8.694 23.829 31.318
575 24 6 -0.5800 8.208 24.171 29.191
576 24 7 0.4500 7.381 23.716 29.149
577 25 1 0.0000 -3.647 14.570 26.025
578 25 3 0.0800 -3.841 14.232 27.500
579 25 4 0.5500 -2.471 13.980 28.113
580 25 5 -0.5000 -1.596 14.834 28.241
581 25 6 -0.5800 -2.152 12.733 28.564
582 25 7 0.4500 -2.829 12.164 28.895
583 25 2 0.0000 -4.802 13.061 27.691
584 25 3 0.0800 -4.310 11.914 26.812
585 25 4 0.5500 -5.342 11.394 25.822
586 25 5 -0.5000 -5.924 12.216 25.118
587 25 6 -0.5800 -5.674 10.082 25.653
588 25 7 0.4500 -6.520 9.763 25.929
589 25 2 0.0000 -3.521 10.836 27.550
590 25 3 0.0800 -2.027 10.770 27.245
591 25 4 0.5500 -1.323 12.105 27.048
592 25 5 -0.5000 -1.814 12.924 26.275
593 25 6 -0.5800 -0.169 12.462 27.680
594 25 7 0.4500 0.117 12.032 28.472
595 25 2 0.0000 -1.496 9.578 26.453
596 25 2 0.0800 -0.056 9.628 25.952
597 25 4 0.5500 0.727 8.326 26.048
598 25 5 -0.5000 0.090 7.315 26.336
599 25 6 -0.5800 2.067 8.169 25.845
600 25 7 0.4500 2.581 8.474 25.113
601 26 1 0.0000 5.605 2.322 33.231
602 26 3 0.0800 6.548 1.162 33.537
603 26 4 0.5500 7.326 1.504 34.799
604 26 5 -0.5000 6.814 1.796 35.877
605 26 6 -0.5800 8.690 1.497 34.774
606 26 7 0.4500 9.152 1.962 34.094
607 26 2 0.0000 7.452 0.840 32.350
608 26 3 0.0800 7.928 -0.602 32.511
609 26 4 0.5500 6.806 -1.623 32.636
610 26 5 -0.5000 6.759 -2.298 33.662
611 26 6 -0.5800 5.845 -1.850 31.695
612 26 7 0.4500 5.175 -1.203 31.531
613 26 2 0.0000 9.085 -0.788 33.489
614 26 3 0.0800 10.175 0.280 33.451
615 26 4 0.5500 11.233 0.118 32.369
616 26 5 -0.5000 12.310 0.694 32.503
617 26 6 -0.5800 11.067 -0.634 31.243
618 26 7 0.4500 11.749 -0.710 30.593
619 26 2 0.0000 10.613 0.923 34.763
620 26 2 0.0800 11.330 2.268 34.705
621 26 4 0.5500 11.753 2.737 33.320
622 26 5 -0.5000 11.483 1.997 32.377
623 26 6 -0.5800 12.404 3.899 33.021
624 26 7 0.4500 12.355 4.723 33.479
625 27 1 0.0000 20.927 21.630 3.059
626 27 3 0.0800 19.487 22.120 2.931
627 27 4 0.5500 18.874 22.157 4.323
628 27 5 -0.5000 19.438 21.772 5.345
629 27 6 -0.5800 17.611 22.646 4.493
630 27 7 0.4500 17.332 23.407 4.009
631 27 2 0.0000 18.685 21.268 1.951
632 27 3 0.0800 18.639 19.847 2.506
633 27 4 0.5500 17.668 19.655 3.663
634 27 5 -0.5000 17.150 18.549 3.798
635 27 6 -0.5800 17.327 20.618 4.567
636 27 7 0.4500 16.534 20.537 5.075
637 27 2 0.0000 20.003 19.188 2.690
638 27 3 0.0800 20.159 17.790 2.097
639 27 4 0.5500 18.871 17.011 1.871
640 27 5 -0.5000 18.636 16.037 2.583
641 27 6 -0.5800 17.945 17.322 0.919
642 27 7 0.4500 17.710 18.218 0.730
643 27 2 0.0000 21.409 16.986 2.442
644 27 2 0.0800 21.302 15.465 2.480
645 27 4 0.5500 20.028 14.902 3.094
646 27 5 -0.5000 19.237 14.357 2.328
647 27 6 -0.5800 19.676 14.942 4.412
648 27 7 0.4500 18.820 15.104 4.776
649 28 1 0.0000 0.573 10.695 22.209
650 28 3 0.0800 1.948 11.303 22.469
651 28 4 0.5500 1.964 11.849 23.889
652 28 5 -0.5000 2.979 12.177 24.500
653 28 6 -0.5800 0.790 12.003 24.567
654 28 7 0.4500 0.382 11.256 24.977
655 28 2 0.0000 2.309 12.354 21.424
656 28 3 0.0800 3.682 11.994 20.863
657 28 4 0.5500 4.339 10.794 21.532
658 28 5 -0.5000 5.516 10.564 21.265
659 28 6 -0.5800 3.721 9.951 22.408
660 28 7 0.4500 2.938 10.223 22.862
661 28 2 0.0000 4.606 13.185 20.620
662 28 3 0.0800 6.014 13.072 21.198
663 28 4 0.5500 6.428 14.166 22.172
664 28 5 -0.5000 6.971 15.176 21.732
665 28 6 -0.5800 6.234 14.103 23.521
666 28 7 0.4500 5.439 13.751 23.892
667 28 2 0.0000 7.110 12.457 20.335
668 28 2 0.0800 8.427 13.213 20.190
669 28 4 0.5500 8.314 14.724 20.044
670 28 5 -0.5000 7.846 15.146 18.989
671 28 6 -0.5800 8.680 15.658 20.969
672 28 7 0.4500 9.275 15.550 21.695
673 29 1 0.0000 3.167 8.300 0.897
674 29 3 0.0800 3.249 9.658 1.586
675 29 4 0.5500 2.336 10.622 0.844
676 29 5 -0.5000 1.138 10.434 0.644
677 29 6 -0.5800 2.842 11.789 0.351
678 29 7 0.4500 2.971 12.527 0.926
679 29 2 0.0000 4.688 10.158 1.682
680 29 3 0.0800 5.601 9.025 1.220
681 29 4 0.5500 7.087 9.305 1.393
682 29 5 -0.5000 7.461 10.473 1.322
683 29 6 -0.5800 8.041 8.357 1.623
684 29 7 0.4500 7.831 7.439 1.547
685 29 2 0.0000 5.213 8.394 -0.114
686 29 3 0.0800 5.567 6.920 -0.289
687 29 4 0.5500 4.396 5.969 -0.491
688 29 5 -0.5000 4.328 4.957 0.204
689 29 6 -0.5800 3.401 6.163 -1.402
690 29 7 0.4500 2.560 6.515 -1.151
691 29 2 0.0000 6.792 6.373 0.437
692 29 2 0.0800 7.554 5.216 -0.202
693 29 4 0.5500 6.759 3.938 -0.426
694 29 5 -0.5000 6.122 3.505 0.532
695 29 6 -0.5800 6.682 3.223 -1.586
696 29 7 0.4500 7.339 3.143 -2.260
697 30 1 0.0000 3.076 4.698 10.100
698 30 3 0.0800 3.295 5.169 11.534
699 30 4 0.5500 2.029 4.880 12.327
700 30 5 -0.5000 1.311 3.896 12.162
701 30 6 -0.5800 1.626 5.749 13.299
702 30 7 0.4500 2.266 6.148 13.868
703 30 2 0.0000 3.709 6.637 11.591
704 30 3 0.0800 4.196 6.924 13.009
705 30 4 0.5500 4.951 8.237 13.159
706 30 5 -0.5000 4.786 9.095 12.295
707 30 6 -0.5800 5.800 8.540 14.184
708 30 7 0.4500 5.665 8.167 15.042
709 30 2 0.0000 4.823 5.731 13.724
710 30 3 0.0800 6.349 5.687 13.745
711 30 4 0.5500 7.062 6.923 13.216
712 30 5 -0.5000 6.516 7.594 12.343
713 30 6 -0.5800 8.284 7.346 13.650
714 30 7 0.4500 9.085 7.052 13.243
715 30 2 0.0000 7.043 4.343 13.545
716 30 2 0.0800 8.159 4.253 12.509
717 30 4 0.5500 9.251 3.231 12.794
718 30 5 -0.5000 8.885 2.092 13.075
719 30 6 -0.5800 10.597 3.453 12.769
720 30 7 0.4500 11.184 3.363 12.034
721 31 1 0.0000 17.022 8.930 27.346
722 31 3 0.0800 16.000 9.978 27.775
723 31 4 0.5500 15.433 9.563 29.125
724 31 5 -0.5000 16.107 9.172 30.075
725 31 6 -0.5800 14.086 9.612 29.336
726 31 7 0.4500 13.501 9.765 28.611
727 31 2 0.0000 14.921 10.184 26.716
728 31 3 0.0800 14.023 8.950 26.727
729 31 4 0.5500 14.773 7.628 26.808
730 31 5 -0.5000 14.151 6.640 27.192
731 31 6 -0.5800 16.087 7.451 26.485
732 31 7 0.4500 16.700 7.139 27.133
733 31 2 0.0000 12.878 8.984 25.719
734 31 3 0.0800 11.612 8.227 26.115
735 31 4 0.5500 10.825 8.803 27.283
736 31 5 -0.5000 10.960 8.296 28.395
737 31 6 -0.5800 9.969 9.859 27.182
738 31 7 0.4500 10.225 10.733 27.438
739 31 2 0.0000 11.580 6.713 25.931
740 31 2 0.0800 12.611 5.872 26.678
741 31 4 0.5500 12.687 4.405 26.281
742 31 5 -0.5000 11.666 3.737 26.427
743 31 6 -0.5800 13.777 3.756 25.779
744 31 7 0.4500 14.575 3.532 26.232
745 32 1 0.0000 17.679 27.965 5.853
746 32 3 0.0800 18.832 27.117 5.322
747 32 4 0.5500 19.438 26.357 6.492
748 32 5 -0.5000 19.912 25.225 6.419
749 32 6 -0.5800 19.478 26.936 7.727
750 32 7 0.4500 19.545 27.875 7.805
751 32 2 0.0000 19.855 27.961 4.568
752 32 3 0.0800 19.184 29.284 4.207
753 32 4 0.5500 19.465 30.418 5.183
754 32 5 -0.5000 20.448 30.314 5.913
755 32 6 -0.5800 18.709 31.546 5.313
756 32 7 0.4500 19.122 32.386 5.444
757 32 2 0.0000 17.731 29.163 3.757
758 32 3 0.0800 16.832 30.358 4.060
759 32 4 0.5500 16.070 30.306 5.376
760 32 5 -0.5000 16.504 30.937 6.338
761 32 6 -0.5800 14.920 29.598 5.567
762 32 7 0.4500 14.086 30.027 5.687
763 32 2 0.0000 16.163 31.083 2.896
764 32 2 0.0800 16.030 30.345 1.567
765 32 4 0.5500 15.227 29.053 1.600
766 32 5 -0.5000 15.805 28.051 2.016
767 32 6 -0.5800 13.928 28.894 1.214
768 32 7 0.4500 13.335 28.199 1.455
769 33 1 0.0000 26.975 15.713 28.587
770 33 3 0.0800 27.587 14.577 29.400
771 33 4 0.5500 26.934 14.572 30.775
772 33 5 -0.5000 26.239 13.658 31.214
773 33 6 -0.5800 27.108 15.637 31.609
774 33 7 0.4500 26.501 16.360 31.582
775 33 2 0.0000 29.108 14.683 29.465
776 33 3 0.0800 29.487 15.004 30.908
777 33 4 0.5500 30.964 14.821 31.226
778 33 5 -0.5000 31.732 14.628 30.285
779 33 6 -0.5800 31.507 14.857 32.477
780 33 7 0.4500 32.437 14.735 32.598
781 33 2 0.0000 28.526 14.454 31.959
782 33 3 0.0800 28.960 13.168 32.658
783 33 4 0.5500 30.445 13.043 32.969
784 33 5 -0.5000 30.893 13.620 33.957
785 33 6 -0.5800 31.326 12.323 32.217
786 33 7 0.4500 32.237 12.567 32.152
787 33 2 0.0000 28.201 11.880 32.354
788 33 2 0.0800 26.993 11.532 33.218
789 33 4 0.5500 26.512 12.625 34.161
790 33 5 -0.5000 26.857 13.775 33.899
791 33 6 -0.5800 25.736 12.456 35.270
792 33 7 0.4500 25.949 12.675 36.164
793 34 1 0.0000 12.731 12.956 17.425
794 34 3 0.0800 13.953 13.550 16.731
795 34 4 0.5500 14.937 13.994 17.803
796 34 5 -0.5000 15.653 14.990 17.724
797 34 6 -0.5800 15.064 13.264 18.948
798 34 7 0.4500 14.912 12.332 18.932
799 34 2 0.0000 13.570 14.674 15.773
800 34 3 0.0800 13.982 14.243 14.368
801 34 4 0.5500 13.058 13.214 13.731
802 34 5 -0.5000 12.650 13.438 12.593
803 34 6 -0.5800 12.646 12.057 14.324
804 34 7 0.4500 12.042 12.082 15.051
805 34 2 0.0000 15.473 13.969 14.194
806 34 3 0.0800 16.047 14.234 12.805