LAMMPS Description # full

50 atoms
45 bonds
40 angles
35 dihedrals
0 impropers

2 atom types
2 bond types
2 angle types
1 dihedral types
0 improper types

-0.43 7.26 xlo xhi # 0.00 7.69
-0.59 7.10 ylo yhi # 0.00 7.69
-0.73 6.96 zlo zhi # 0.00 7.69

Masses

1 15.035 # CH3 n-Butane C 83
2 14.027 # CH2 n-Butane C 86

Pair Coeffs

1 0.1750 3.9050
2 0.1180 3.9050

Bond Coeffs

1  260.0 1.526
2  260.0 1.526

Angle Coeffs

1 63.0 112.4
2 63.0 112.4

Dihedral Coeffs

1  0.0 0.0 4.0 0.0

Atoms

1 1 1 0.0000 3.981 2.275 5.761
2 1 2 0.0000 3.001 2.878 6.764
3 1 2 0.0000 2.246 4.022 6.094
4 1 2 0.0000 0.775 4.020 6.499
5 1 2 0.0000 0.057 3.148 5.473
6 1 2 0.0000 1.093 2.640 4.474
7 1 2 0.0000 1.811 1.460 5.123
8 1 2 0.0000 1.388 0.190 4.391
9 1 2 0.0000 2.277 -0.960 4.856
10 1 1 0.0000 2.448 -1.990 3.742
11 2 1 0.0000 3.841 5.518 5.891
12 2 2 0.0000 4.856 5.144 4.815
13 2 2 0.0000 4.612 6.008 3.581
14 2 2 0.0000 4.519 7.484 3.954
15 2 2 0.0000 3.245 8.006 3.296
16 2 2 0.0000 3.531 9.401 2.749
17 2 2 0.0000 4.264 9.228 1.422
18 2 2 0.0000 5.625 9.908 1.541
19 2 2 0.0000 6.193 9.623 2.929
20 2 1 0.0000 5.262 10.163 4.011
21 3 1 0.0000 0.257 4.655 1.176
22 3 2 0.0000 -0.468 5.427 2.275
23 3 2 0.0000 -0.666 4.509 3.478
24 3 2 0.0000 0.218 4.937 4.646
25 3 2 0.0000 -0.610 5.928 5.459
26 3 2 0.0000 -0.985 5.262 6.780
27 3 2 0.0000 -1.794 4.012 6.446
28 3 2 0.0000 -1.360 2.900 7.397
29 3 2 0.0000 -1.971 1.585 6.921
30 3 1 0.0000 -0.943 0.765 6.146
31 4 1 0.0000 0.847 1.634 -0.845
32 4 2 0.0000 2.075 1.193 -0.052
33 4 2 0.0000 1.960 1.722 1.374
34 4 2 0.0000 1.881 3.246 1.390
35 4 2 0.0000 1.770 3.647 2.858
36 4 2 0.0000 3.167 3.602 3.469
37 4 2 0.0000 4.136 4.166 2.433
38 4 2 0.0000 3.874 3.457 1.107
39 4 2 0.0000 4.212 4.414 -0.033
40 4 1 0.0000 5.134 5.527 0.457
41 5 1 0.0000 5.147 -0.338 -0.314
42 5 2 0.0000 6.061 0.320 0.715
43 5 2 0.0000 7.330 -0.515 0.857
44 5 2 0.0000 8.167 -0.044 2.043
45 5 2 0.0000 9.396 -0.949 2.077
46 5 2 0.0000 10.483 -0.305 1.222
47 5 2 0.0000 11.004 -1.374 0.266
48 5 2 0.0000 9.950 -2.474 0.169
49 5 2 0.0000 8.656 -1.865 -0.362
50 5 1 0.0000 8.936 -0.545 -1.073

Bonds

1 1 1 2
2 2 3 4
3 2 5 6
4 2 7 8
5 1 9 10
6 2 2 3
7 2 4 5
8 2 6 7
9 2 8 9
10 1 11 12
11 2 13 14
12 2 15 16
13 2 17 18
14 1 19 20
15 2 12 13
16 2 14 15
17 2 16 17
18 2 18 19
19 1 21 22
20 2 23 24
21 2 25 26
22 2 27 28
23 1 29 30
24 2 22 23
25 2 24 25
26 2 26 27
27 2 28 29
28 1 31 32
29 2 33 34
30 2 35 36
31 2 37 38
32 1 39 40
33 2 32 33
34 2 34 35
35 2 36 37
36 2 38 39
37 1 41 42
38 2 43 44
39 2 45 46
40 2 47 48
41 1 49 50
42 2 42 43
43 2 44 45
44 2 46 47
45 2 48 49

Angles

1 1 1 2 3
2 2 4 3 2
3 2 3 4 5
4 2 6 5 4
5 2 5 6 7
6 2 8 7 6
7 2 7 8 9
8 1 10 9 8
9 1 11 12 13
10 2 14 13 12
11 2 13 14 15
12 2 16 15 14
13 2 15 16 17
14 2 18 17 16
15 2 17 18 19
16 1 20 19 18
17 1 21 22 23
18 2 24 23 22
19 2 23 24 25
20 2 26 25 24
21 2 25 26 27
22 2 28 27 26
23 2 27 28 29
24 1 30 29 28
25 1 31 32 33
26 2 34 33 32
27 2 33 34 35
28 2 36 35 34
29 2 35 36 37
30 2 38 37 36
31 2 37 38 39
32 1 40 39 38
33 1 41 42 43
34 2 44 43 42
35 2 43 44 45
36 2 46 45 44
37 2 45 46 47
38 2 48 47 46
39 2 47 48 49
40 1 50 49 48

Dihedrals

1 1 1 2 3 4
2 1 2 3 4 5
3 1 3 4 5 6
4 1 4 5 6 7
5 1 5 6 7 8
6 1 6 7 8 9
7 1 7 8 9 10
8 1 11 12 13 14
9 1 12 13 14 15
10 1 13 14 15 16
11 1 14 15 16 17
12 1 15 16 17 18
13 1 16 17 18 19
14 1 17 18 19 20
15 1 21 22 23 24
16 1 22 23 24 25
17 1 23 24 25 26
18 1 24 25 26 27
19 1 25 26 27 28
20 1 26 27 28 29
21 1 27 28 29 30
22 1 31 32 33 34
23 1 32 33 34 35
24 1 33 34 35 36
25 1 34 35 36 37
26 1 35 36 37 38
27 1 36 37 38 39
28 1 37 38 39 40
29 1 41 42 43 44
30 1 42 43 44 45
31 1 43 44 45 46
32 1 44 45 46 47
33 1 45 46 47 48
34 1 46 47 48 49
35 1 47 48 49 50

